8
Atoms. Timestep: 0
1 0.000000e+00 0.000000e+00 0.000000e+00
1 2.715000e+00 2.715000e+00 0.000000e+00
1 2.715000e+00 0.000000e+00 2.715000e+00
1 0.000000e+00 2.715000e+00 2.715000e+00
1 1.357500e+00 1.357500e+00 1.357500e+00
1 4.072500e+00 4.072500e+00 1.357500e+00
1 4.072500e+00 1.357500e+00 4.072500e+00
1 1.357500e+00 4.072500e+00 4.072500e+00
8
Atoms. Timestep: 2
1 2.294928e-03 1.739420e-03 -1.706537e-03
1 2.712981e+00 2.714963e+00 -3.596503e-03
1 2.713661e+00 -4.954095e-03 2.721836e+00
1 -5.082980e-03 2.719166e+00 2.714630e+00
1 1.364181e+00 1.359133e+00 1.349294e+00
1 4.069559e+00 4.074760e+00 1.367602e+00
1 4.071959e+00 1.351557e+00 4.071337e+00
1 1.360447e+00 4.073636e+00 4.070606e+00
8
Atoms. Timestep: 4
1 4.578457e-03 3.451116e-03 -3.390720e-03
1 2.711010e+00 2.714947e+00 -7.190180e-03
1 2.712309e+00 -9.864115e-03 2.728634e+00
1 -1.012302e-02 2.723287e+00 2.714258e+00
1 1.370831e+00 1.360761e+00 1.341148e+00
1 4.066618e+00 4.077024e+00 1.377635e+00
1 4.071421e+00 1.345643e+00 4.070178e+00
1 1.363355e+00 4.074752e+00 4.068727e+00
8
Atoms. Timestep: 6
1 6.840108e-03 5.108631e-03 -5.030878e-03
1 2.709134e+00 2.714971e+00 -1.077901e-02
1 2.710932e+00 -1.468549e-02 2.735359e+00
1 -1.507825e-02 2.727320e+00 2.713888e+00
1 1.377421e+00 1.362377e+00 1.333122e+00
1 4.063677e+00 4.079292e+00 1.387532e+00
1 4.070889e+00 1.339789e+00 4.069030e+00
1 1.366184e+00 4.075828e+00 4.066879e+00
8
Atoms. Timestep: 8
1 9.070436e-03 6.687143e-03 -6.606211e-03
1 2.707402e+00 2.715055e+00 -1.436171e-02
1 2.709519e+00 -1.937360e-02 2.741972e+00
1 -1.990839e-02 2.731222e+00 2.713520e+00
1 1.383922e+00 1.363974e+00 1.325273e+00
1 4.060734e+00 4.081569e+00 1.397227e+00
1 4.070369e+00 1.334023e+00 4.067895e+00
1 1.368893e+00 4.076843e+00 4.065080e+00
8
Atoms. Timestep: 10
1 1.126105e-02 8.163709e-03 -8.096919e-03
1 2.705855e+00 2.715218e+00 -1.793761e-02
1 2.708060e+00 -2.388427e-02 2.748437e+00
1 -2.457525e-02 2.734954e+00 2.713160e+00
1 1.390305e+00 1.365543e+00 1.317654e+00
1 4.057790e+00 4.083856e+00 1.406656e+00
1 4.069862e+00 1.328375e+00 4.066781e+00
1 1.371441e+00 4.077776e+00 4.063347e+00
8
Atoms. Timestep: 12
1 1.340457e-02 9.517463e-03 -9.484307e-03
1 2.704538e+00 2.715477e+00 -2.150644e-02
1 2.706549e+00 -2.817431e-02 2.754718e+00
1 -2.904305e-02 2.738479e+00 2.712811e+00
1 1.396543e+00 1.367071e+00 1.310316e+00
1 4.054845e+00 4.086155e+00 1.415760e+00
1 4.069375e+00 1.322871e+00 4.065689e+00
1 1.373788e+00 4.078604e+00 4.061696e+00
8
Atoms. Timestep: 14
1 1.549459e-02 1.072976e-02 -1.075086e-02
1 2.703489e+00 2.715847e+00 -2.506812e-02
1 2.704979e+00 -3.220199e-02 2.760782e+00
1 -3.327887e-02 2.741762e+00 2.712480e+00
1 1.402610e+00 1.368549e+00 1.303304e+00
1 4.051901e+00 4.088467e+00 1.424480e+00
1 4.068911e+00 1.317540e+00 4.064626e+00
1 1.375895e+00 4.079307e+00 4.060146e+00
8
Atoms. Timestep: 16
1 1.752555e-02 1.178425e-02 -1.188030e-02
1 2.702743e+00 2.716344e+00 -2.862252e-02
1 2.703345e+00 -3.592750e-02 2.766595e+00
1 -3.725284e-02 2.744771e+00 2.712173e+00
1 1.408481e+00 1.369965e+00 1.296660e+00
1 4.048958e+00 4.090794e+00 1.432766e+00
1 4.068476e+00 1.312405e+00 4.063596e+00
1 1.377724e+00 4.079864e+00 4.058714e+00
8
Atoms. Timestep: 18
1 1.949260e-02 1.266691e-02 -1.285761e-02
1 2.702335e+00 2.716979e+00 -3.216922e-02
1 2.701643e+00 -3.931345e-02 2.772127e+00
1 -4.093842e-02 2.747478e+00 2.711893e+00
1 1.414134e+00 1.371309e+00 1.290422e+00
1 4.046021e+00 4.093134e+00 1.440567e+00
1 4.068076e+00 1.307493e+00 4.062602e+00
1 1.379238e+00 4.080253e+00 4.057415e+00
8
Atoms. Timestep: 20
1 2.139149e-02 1.336607e-02 -1.366905e-02
1 2.702292e+00 2.717762e+00 -3.570728e-02
1 2.699870e+00 -4.232524e-02 2.777349e+00
1 -4.431249e-02 2.749858e+00 2.711648e+00
1 1.419548e+00 1.372569e+00 1.284622e+00
1 4.043091e+00 4.095488e+00 1.447842e+00
1 4.067716e+00 1.302824e+00 4.061650e+00
1 1.380405e+00 4.080457e+00 4.056266e+00
8
Atoms. Timestep: 22
1 2.321836e-02 1.387228e-02 -1.430213e-02
1 2.702640e+00 2.718702e+00 -3.923501e-02
1 2.698024e+00 -4.493146e-02 2.782236e+00
1 -4.735549e-02 2.751889e+00 2.711440e+00
1 1.424705e+00 1.373738e+00 1.279288e+00
1 4.040174e+00 4.097854e+00 1.454551e+00
1 4.067403e+00 1.298420e+00 4.060742e+00
1 1.381192e+00 4.080456e+00 4.055280e+00
8
Atoms. Timestep: 24
1 2.496961e-02 1.417832e-02 -1.474561e-02
1 2.703399e+00 2.719805e+00 -4.274973e-02
1 2.696101e+00 -4.710421e-02 2.786763e+00
1 -5.005142e-02 2.753550e+00 2.711273e+00
1 1.429588e+00 1.374807e+00 1.274443e+00
1 4.037275e+00 4.100229e+00 1.460661e+00
1 4.067145e+00 1.294299e+00 4.059884e+00
1 1.381573e+00 4.080236e+00 4.054470e+00
8
Atoms. Timestep: 26
1 2.664170e-02 1.427903e-02 -1.498942e-02
1 2.704588e+00 2.721075e+00 -4.624765e-02
1 2.694099e+00 -4.881940e-02 2.790911e+00
1 -5.238781e-02 2.754827e+00 2.711149e+00
1 1.434185e+00 1.375770e+00 1.270107e+00
1 4.034401e+00 4.102609e+00 1.466143e+00
1 4.066948e+00 1.290477e+00 4.059080e+00
1 1.381524e+00 4.079783e+00 4.053848e+00
8
Atoms. Timestep: 28
1 2.823106e-02 1.417118e-02 -1.502467e-02
1 2.706219e+00 2.722513e+00 -4.972373e-02
1 2.692015e+00 -5.005703e-02 2.794662e+00
1 -5.435570e-02 2.755707e+00 2.711066e+00
1 1.438483e+00 1.376623e+00 1.266293e+00
1 4.031561e+00 4.104989e+00 1.470974e+00
1 4.066821e+00 1.286969e+00 4.058333e+00
1 1.381026e+00 4.079084e+00 4.053420e+00
8
Atoms. Timestep: 30
1 2.973390e-02 1.385341e-02 -1.484355e-02
1 2.708302e+00 2.724120e+00 -5.317155e-02
1 2.689845e+00 -5.080133e-02 2.798004e+00
1 -5.594948e-02 2.756179e+00 2.711023e+00
1 1.442473e+00 1.377364e+00 1.263013e+00
1 4.028762e+00 4.107365e+00 1.475134e+00
1 4.066771e+00 1.283787e+00 4.057648e+00
1 1.380063e+00 4.078133e+00 4.053194e+00
8
Atoms. Timestep: 32
1 3.114612e-02 1.332603e-02 -1.443930e-02
1 2.710840e+00 2.725893e+00 -5.658332e-02
1 2.687584e+00 -5.104101e-02 2.800925e+00
1 -5.716685e-02 2.756237e+00 2.711016e+00
1 1.446150e+00 1.377992e+00 1.260271e+00
1 4.026014e+00 4.109729e+00 1.478610e+00
1 4.066807e+00 1.280942e+00 4.057028e+00
1 1.378625e+00 4.076921e+00 4.053174e+00
8
Atoms. Timestep: 34
1 3.246328e-02 1.259097e-02 -1.380617e-02
1 2.713837e+00 2.727829e+00 -5.994986e-02
1 2.685226e+00 -5.076931e-02 2.803418e+00
1 -5.800861e-02 2.755875e+00 2.711039e+00
1 1.449510e+00 1.378511e+00 1.258072e+00
1 4.023328e+00 4.112075e+00 1.481391e+00
1 4.066937e+00 1.278439e+00 4.056477e+00
1 1.376708e+00 4.075448e+00 4.053360e+00
8
Atoms. Timestep: 36
1 3.368049e-02 1.165162e-02 -1.293938e-02
1 2.717289e+00 2.729923e+00 -6.326068e-02
1 2.682764e+00 -4.998416e-02 2.805480e+00
1 -5.847854e-02 2.755094e+00 2.711084e+00
1 1.452550e+00 1.378924e+00 1.256413e+00
1 4.020715e+00 4.114394e+00 1.483474e+00
1 4.067170e+00 1.276285e+00 4.055999e+00
1 1.374310e+00 4.073712e+00 4.053752e+00
8
Atoms. Timestep: 38
1 3.479249e-02 1.051278e-02 -1.183509e-02
1 2.721190e+00 2.732166e+00 -6.650413e-02
1 2.680191e+00 -4.868815e-02 2.807111e+00
1 -5.858324e-02 2.753892e+00 2.711141e+00
1 1.455271e+00 1.379239e+00 1.255289e+00
1 4.018187e+00 4.116679e+00 1.484858e+00
1 4.067515e+00 1.274481e+00 4.055596e+00
1 1.371437e+00 4.071716e+00 4.054345e+00
8
Atoms. Timestep: 40
1 3.579361e-02 9.180556e-03 -1.049036e-02
1 2.725530e+00 2.734551e+00 -6.966749e-02
1 2.677498e+00 -4.688856e-02 2.808314e+00
1 -5.833199e-02 2.752274e+00 2.711197e+00
1 1.457677e+00 1.379465e+00 1.254694e+00
1 4.015756e+00 4.118921e+00 1.485547e+00
1 4.067979e+00 1.273029e+00 4.055273e+00
1 1.368098e+00 4.069468e+00 4.055134e+00
8
Atoms. Timestep: 42
1 3.667790e-02 7.662360e-03 -8.903179e-03
1 2.730296e+00 2.737068e+00 -7.273726e-02
1 2.674676e+00 -4.459733e-02 2.809098e+00
1 -5.773655e-02 2.750244e+00 2.711240e+00
1 1.459771e+00 1.379612e+00 1.254614e+00
1 4.013433e+00 4.121110e+00 1.485550e+00
1 4.068572e+00 1.271924e+00 4.055030e+00
1 1.364310e+00 4.066975e+00 4.056110e+00
8
Atoms. Timestep: 44
1 3.743922e-02 5.966835e-03 -7.072447e-03
1 2.735471e+00 2.739707e+00 -7.569939e-02
1 2.671717e+00 -4.183096e-02 2.809470e+00
1 -5.681104e-02 2.747811e+00 2.711253e+00
1 1.461561e+00 1.379695e+00 1.255036e+00
1 4.011231e+00 4.123239e+00 1.484880e+00
1 4.069301e+00 1.271161e+00 4.054872e+00
1 1.360091e+00 4.064249e+00 4.057262e+00
8
Atoms. Timestep: 46
1 3.807139e-02 4.103855e-03 -4.998017e-03
1 2.741033e+00 2.742455e+00 -7.853955e-02
1 2.668611e+00 -3.861037e-02 2.809447e+00
1 -5.557174e-02 2.744984e+00 2.711220e+00
1 1.463055e+00 1.379729e+00 1.255941e+00
1 4.009162e+00 4.125298e+00 1.483554e+00
1 4.070173e+00 1.270734e+00 4.054799e+00
1 1.355466e+00 4.061304e+00 4.058580e+00
8
Atoms. Timestep: 48
1 3.856838e-02 2.084513e-03 -2.680722e-03
1 2.746960e+00 2.745302e+00 -8.124347e-02
1 2.665352e+00 -3.496072e-02 2.809043e+00
1 -5.403694e-02 2.741773e+00 2.711121e+00
1 1.464260e+00 1.379731e+00 1.257308e+00
1 4.007237e+00 4.127280e+00 1.481594e+00
1 4.071195e+00 1.270631e+00 4.054813e+00
1 1.350463e+00 4.058156e+00 4.060048e+00
8
Atoms. Timestep: 50
1 3.892448e-02 -7.887554e-05 -1.224296e-04
1 2.753225e+00 2.748232e+00 -8.379726e-02
1 2.661932e+00 -3.091124e-02 2.808278e+00
1 -5.222678e-02 2.738194e+00 2.710938e+00
1 1.465189e+00 1.379720e+00 1.259112e+00
1 4.005467e+00 4.129178e+00 1.479028e+00
1 4.072372e+00 1.270839e+00 4.054914e+00
1 1.345116e+00 4.054824e+00 4.061654e+00
8
Atoms. Timestep: 52
1 3.913458e-02 -2.372773e-03 2.673896e-03
1 2.759796e+00 2.751234e+00 -8.618778e-02
1 2.658348e+00 -2.649490e-02 2.807176e+00
1 -5.016306e-02 2.734260e+00 2.710650e+00
1 1.465851e+00 1.379716e+00 1.261324e+00
1 4.003862e+00 4.130985e+00 1.475885e+00
1 4.073710e+00 1.271343e+00 4.055102e+00
1 1.339460e+00 4.051326e+00 4.063381e+00
8
Atoms. Timestep: 54
1 3.919436e-02 -4.782420e-03 5.704126e-03
1 2.766641e+00 2.754293e+00 -8.840295e-02
1 2.654597e+00 -2.174811e-02 2.805760e+00
1 -4.786903e-02 2.729990e+00 2.710237e+00
1 1.466258e+00 1.379741e+00 1.263914e+00
1 4.002432e+00 4.132695e+00 1.472201e+00
1 4.075212e+00 1.272125e+00 4.055376e+00
1 1.333533e+00 4.047683e+00 4.065215e+00
8
Atoms. Timestep: 56
1 3.910055e-02 -7.291849e-03 8.962885e-03
1 2.773724e+00 2.757394e+00 -9.043209e-02
1 2.650680e+00 -1.671042e-02 2.804058e+00
1 -4.536924e-02 2.725402e+00 2.709678e+00
1 1.466422e+00 1.379816e+00 1.266847e+00
1 4.001184e+00 4.134305e+00 1.468016e+00
1 4.076881e+00 1.273164e+00 4.055735e+00
1 1.327377e+00 4.043916e+00 4.067140e+00
8
Atoms. Timestep: 58
1 3.885116e-02 -9.883904e-03 1.244348e-02
1 2.781007e+00 2.760524e+00 -9.226627e-02
1 2.646599e+00 -1.142404e-02 2.802099e+00
1 -4.268933e-02 2.720517e+00 2.708952e+00
1 1.466356e+00 1.379964e+00 1.270086e+00
1 4.000125e+00 4.135811e+00 1.463374e+00
1 4.078717e+00 1.274438e+00 4.056176e+00
1 1.321033e+00 4.040048e+00 4.069141e+00
8
Atoms. Timestep: 60
1 3.844572e-02 -1.254029e-02 1.613782e-02
1 2.788448e+00 2.763668e+00 -9.389851e-02
1 2.642363e+00 -5.933445e-03 2.799914e+00
1 -3.985576e-02 2.715357e+00 2.708041e+00
1 1.466070e+00 1.380209e+00 1.273590e+00
1 3.999259e+00 4.137212e+00 1.458323e+00
1 4.080723e+00 1.275923e+00 4.056697e+00
1 1.314545e+00 4.036100e+00 4.071203e+00
8
Atoms. Timestep: 62
1 3.788547e-02 -1.524161e-02 2.003635e-02
1 2.796006e+00 2.766811e+00 -9.532409e-02
1 2.637980e+00 -2.848870e-04 2.797536e+00
1 -3.689570e-02 2.709945e+00 2.706925e+00
1 1.465578e+00 1.380572e+00 1.277315e+00
1 3.998591e+00 4.138506e+00 1.452913e+00
1 4.082895e+00 1.277594e+00 4.057293e+00
1 1.307958e+00 4.032093e+00 4.073311e+00
8
Atoms. Timestep: 64
1 3.717355e-02 -1.796748e-02 2.412799e-02
1 2.803637e+00 2.769939e+00 -9.654070e-02
1 2.633465e+00 5.474117e-03 2.795000e+00
1 -3.383673e-02 2.704308e+00 2.705587e+00
1 1.464890e+00 1.381075e+00 1.281217e+00
1 3.998123e+00 4.139694e+00 1.447201e+00
1 4.085231e+00 1.279422e+00 4.057961e+00
1 1.301315e+00 4.028049e+00 4.075454e+00
8
Atoms. Timestep: 66
1 3.631510e-02 -2.069664e-02 2.840010e-02
1 2.811294e+00 2.773036e+00 -9.754860e-02
1 2.628835e+00 1.129532e-02 2.792339e+00
1 -3.070668e-02 2.698473e+00 2.704012e+00
1 1.464017e+00 1.381741e+00 1.285247e+00
1 3.997855e+00 4.140779e+00 1.441244e+00
1 4.087727e+00 1.281378e+00 4.058695e+00
1 1.294660e+00 4.023988e+00 4.077619e+00
8
Atoms. Timestep: 68
1 3.531744e-02 -2.340704e-02 3.283845e-02
1 2.818934e+00 2.776089e+00 -9.835064e-02
1 2.624109e+00 1.713029e-02 2.789590e+00
1 -2.753343e-02 2.692467e+00 2.702188e+00
1 1.462973e+00 1.382588e+00 1.289357e+00
1 3.997785e+00 4.141763e+00 1.435102e+00
1 4.090378e+00 1.283435e+00 4.059489e+00
1 1.288034e+00 4.019928e+00 4.079794e+00
8
Atoms. Timestep: 70
1 3.419003e-02 -2.607604e-02 3.742723e-02
1 2.826508e+00 2.779083e+00 -9.895232e-02
1 2.619311e+00 2.293097e-02 2.786789e+00
1 -2.434474e-02 2.686321e+00 2.700103e+00
1 1.461766e+00 1.383634e+00 1.293495e+00
1 3.997910e+00 4.142649e+00 1.428837e+00
1 4.093177e+00 1.285561e+00 4.060338e+00
1 1.281479e+00 4.015888e+00 4.081971e+00
8
Atoms. Timestep: 72
1 3.294453e-02 -2.868058e-02 4.214910e-02
1 2.833972e+00 2.782005e+00 -9.936170e-02
1 2.614465e+00 2.865024e-02 2.783972e+00
1 -2.116804e-02 2.680065e+00 2.697751e+00
1 1.460410e+00 1.384896e+00 1.297611e+00
1 3.998226e+00 4.143443e+00 1.422514e+00
1 4.096115e+00 1.287727e+00 4.061235e+00
1 1.275032e+00 4.011885e+00 4.084139e+00
8
Atoms. Timestep: 74
1 3.159471e-02 -3.119734e-02 4.698520e-02
1 2.841281e+00 2.784841e+00 -9.958929e-02
1 2.609598e+00 3.424244e-02 2.781173e+00
1 -1.803039e-02 2.673733e+00 2.695127e+00
1 1.458915e+00 1.386387e+00 1.301652e+00
1 3.998724e+00 4.144148e+00 1.416196e+00
1 4.099185e+00 1.289904e+00 4.062174e+00
1 1.268730e+00 4.007933e+00 4.086291e+00
8
Atoms. Timestep: 76
1 3.015641e-02 -3.360301e-02 5.191531e-02
1 2.848389e+00 2.787578e+00 -9.964784e-02
1 2.604738e+00 3.966386e-02 2.778429e+00
1 -1.495827e-02 2.667356e+00 2.692230e+00
1 1.457293e+00 1.388117e+00 1.305569e+00
1 3.999398e+00 4.144772e+00 1.409947e+00
1 4.102374e+00 1.292061e+00 4.063147e+00
1 1.262605e+00 4.004046e+00 4.088420e+00
8
Atoms. Timestep: 78
1 2.864730e-02 -3.587445e-02 5.691789e-02
1 2.855256e+00 2.790203e+00 -9.955215e-02
1 2.599914e+00 4.487327e-02 2.775772e+00
1 -1.197761e-02 2.660969e+00 2.689064e+00
1 1.455557e+00 1.390094e+00 1.309311e+00
1 4.000236e+00 4.145317e+00 1.403830e+00
1 4.105672e+00 1.294170e+00 4.064148e+00
1 1.256689e+00 4.000236e+00 4.090520e+00
8
Atoms. Timestep: 80
1 2.708676e-02 -3.798895e-02 6.197033e-02
1 2.861841e+00 2.792705e+00 -9.931870e-02
1 2.595154e+00 4.983226e-02 2.773235e+00
1 -9.113628e-03 2.654607e+00 2.685634e+00
1 1.453722e+00 1.392321e+00 1.312828e+00
1 4.001228e+00 4.145791e+00 1.397909e+00
1 4.109067e+00 1.296205e+00 4.065170e+00
1 1.251008e+00 3.996515e+00 4.092584e+00
8
Atoms. Timestep: 82
1 2.549562e-02 -3.992447e-02 6.704903e-02
1 2.868105e+00 2.795071e+00 -9.896541e-02
1 2.590488e+00 5.450567e-02 2.770847e+00
1 -6.390894e-03 2.648306e+00 2.681952e+00
1 1.451801e+00 1.394801e+00 1.316073e+00
1 4.002361e+00 4.146198e+00 1.392243e+00
1 4.112546e+00 1.298138e+00 4.066205e+00
1 1.245586e+00 3.992891e+00 4.094608e+00
8
Atoms. Timestep: 84
1 2.389586e-02 -4.165986e-02 7.212969e-02
1 2.874014e+00 2.797292e+00 -9.851123e-02
1 2.585943e+00 5.886184e-02 2.768638e+00
1 -3.833263e-03 2.642102e+00 2.678030e+00
1 1.449813e+00 1.397529e+00 1.319002e+00
1 4.003621e+00 4.146542e+00 1.386890e+00
1 4.116096e+00 1.299946e+00 4.067247e+00
1 1.240444e+00 3.989372e+00 4.096587e+00
8
Atoms. Timestep: 86
1 2.231033e-02 -4.317512e-02 7.718751e-02
1 2.879534e+00 2.799358e+00 -9.797578e-02
1 2.581543e+00 6.287287e-02 2.766633e+00
1 -1.463888e-03 2.636030e+00 2.673885e+00
1 1.447775e+00 1.400500e+00 1.321572e+00
1 4.004992e+00 4.146828e+00 1.381905e+00
1 4.119703e+00 1.301607e+00 4.068290e+00
1 1.235599e+00 3.985966e+00 4.098517e+00
8
Atoms. Timestep: 88
1 2.076244e-02 -4.445159e-02 8.219741e-02
1 2.884636e+00 2.801259e+00 -9.737897e-02
1 2.577314e+00 6.651477e-02 2.764856e+00
1 6.947823e-04 2.630127e+00 2.669539e+00
1 1.445707e+00 1.403703e+00 1.323743e+00
1 4.006460e+00 4.147058e+00 1.377339e+00
1 4.123351e+00 1.303098e+00 4.069327e+00
1 1.231067e+00 3.982677e+00 4.100392e+00
8
Atoms. Timestep: 90
1 1.927578e-02 -4.547224e-02 8.713433e-02
1 2.889294e+00 2.802986e+00 -9.674063e-02
1 2.573276e+00 6.976753e-02 2.763326e+00
1 2.621022e-03 2.624429e+00 2.665015e+00
1 1.443632e+00 1.407125e+00 1.325479e+00
1 4.008007e+00 4.147235e+00 1.373239e+00
1 4.127028e+00 1.304403e+00 4.070352e+00
1 1.226858e+00 3.979510e+00 4.102209e+00
8
Atoms. Timestep: 92
1 1.787378e-02 -4.622185e-02 9.197351e-02
1 2.893486e+00 2.804534e+00 -9.608013e-02
1 2.569448e+00 7.261518e-02 2.762062e+00
1 4.293864e-03 2.618972e+00 2.660339e+00
1 1.441574e+00 1.410749e+00 1.326748e+00
1 4.009617e+00 4.147361e+00 1.369650e+00
1 4.130717e+00 1.305504e+00 4.071360e+00
1 1.222981e+00 3.976469e+00 4.103964e+00
8
Atoms. Timestep: 94
1 1.657938e-02 -4.668725e-02 9.669072e-02
1 2.897192e+00 2.805895e+00 -9.541604e-02
1 2.565848e+00 7.504574e-02 2.761077e+00
1 5.693164e-03 2.613790e+00 2.655539e+00
1 1.439559e+00 1.414556e+00 1.327521e+00
1 4.011272e+00 4.147437e+00 1.366609e+00
1 4.134404e+00 1.306387e+00 4.072344e+00
1 1.219442e+00 3.973558e+00 4.105652e+00
8
Atoms. Timestep: 96
1 1.541465e-02 -4.685754e-02 1.012626e-01
1 2.900397e+00 2.807063e+00 -9.476584e-02
1 2.562489e+00 7.705111e-02 2.760382e+00
1 6.799714e-03 2.608919e+00 2.650645e+00
1 1.437614e+00 1.418525e+00 1.327772e+00
1 4.012956e+00 4.147462e+00 1.364151e+00
1 4.138074e+00 1.307040e+00 4.073301e+00
1 1.216245e+00 3.970778e+00 4.107269e+00
8
Atoms. Timestep: 98
1 1.440047e-02 -4.672428e-02 1.056668e-01
1 2.903089e+00 2.808035e+00 -9.414565e-02
1 2.559381e+00 7.862696e-02 2.759986e+00
1 7.595392e-03 2.604391e+00 2.645689e+00
1 1.435769e+00 1.422630e+00 1.327480e+00
1 4.014652e+00 4.147435e+00 1.362305e+00
1 4.141713e+00 1.307453e+00 4.074226e+00
1 1.213390e+00 3.968131e+00 4.108810e+00
8
Atoms. Timestep: 100
1 1.355619e-02 -4.628169e-02 1.098824e-01
1 2.905260e+00 2.808807e+00 -9.356995e-02
1 2.556533e+00 7.977256e-02 2.759894e+00
1 8.063378e-03 2.600238e+00 2.640701e+00
1 1.434054e+00 1.426847e+00 1.326630e+00
1 4.016342e+00 4.147357e+00 1.361096e+00
1 4.145304e+00 1.307618e+00 4.075113e+00
1 1.210876e+00 3.965620e+00 4.110272e+00
8
Atoms. Timestep: 102
1 1.289934e-02 -4.552685e-02 1.138902e-01
1 2.906905e+00 2.809377e+00 -9.305148e-02
1 2.553951e+00 8.049057e-02 2.760105e+00
1 8.188413e-03 2.596487e+00 2.635715e+00
1 1.432499e+00 1.431147e+00 1.325210e+00
1 4.018011e+00 4.147224e+00 1.360542e+00
1 4.148833e+00 1.307531e+00 4.075959e+00
1 1.208701e+00 3.963246e+00 4.111650e+00
8
Atoms. Timestep: 104
1 1.244534e-02 -4.445983e-02 1.176726e-01
1 2.908023e+00 2.809744e+00 -9.260107e-02
1 2.551637e+00 8.078684e-02 2.760620e+00
1 7.957115e-03 2.593167e+00 2.630761e+00
1 1.431137e+00 1.435504e+00 1.323212e+00
1 4.019644e+00 4.147035e+00 1.360657e+00
1 4.152285e+00 1.307187e+00 4.076760e+00
1 1.206859e+00 3.961010e+00 4.112939e+00
8
Atoms. Timestep: 106
1 1.220727e-02 -4.308386e-02 1.212141e-01
1 2.908619e+00 2.809908e+00 -9.222758e-02
1 2.549592e+00 8.067017e-02 2.761433e+00
1 7.358341e-03 2.590302e+00 2.625871e+00
1 1.429996e+00 1.439888e+00 1.320634e+00
1 4.021226e+00 4.146789e+00 1.361450e+00
1 4.155646e+00 1.306586e+00 4.077512e+00
1 1.205343e+00 3.958914e+00 4.114135e+00
8
Atoms. Timestep: 108
1 1.219568e-02 -4.140545e-02 1.245016e-01
1 2.908699e+00 2.809871e+00 -9.193790e-02
1 2.547815e+00 8.015211e-02 2.762537e+00
1 6.383590e-03 2.587911e+00 2.621073e+00
1 1.429105e+00 1.444274e+00 1.317480e+00
1 4.022742e+00 4.146483e+00 1.362923e+00
1 4.158902e+00 1.305729e+00 4.078212e+00
1 1.204144e+00 3.956958e+00 4.115233e+00
8
Atoms. Timestep: 110
1 1.241837e-02 -3.943446e-02 1.275240e-01
1 2.908275e+00 2.809635e+00 -9.173697e-02
1 2.546303e+00 7.924669e-02 2.763921e+00
1 5.027418e-03 2.586013e+00 2.616395e+00
1 1.428494e+00 1.448632e+00 1.313759e+00
1 4.024181e+00 4.146116e+00 1.365074e+00
1 4.162037e+00 1.304617e+00 4.078856e+00
1 1.203252e+00 3.955144e+00 4.116229e+00
8
Atoms. Timestep: 112
1 1.288032e-02 -3.718416e-02 1.302730e-01
1 2.907360e+00 2.809206e+00 -9.162789e-02
1 2.545051e+00 7.797028e-02 2.765574e+00
1 3.287874e-03 2.584620e+00 2.611862e+00
1 1.428185e+00 1.452939e+00 1.309484e+00
1 4.025529e+00 4.145687e+00 1.367896e+00
1 4.165038e+00 1.303257e+00 4.079442e+00
1 1.202656e+00 3.953474e+00 4.117119e+00
8
Atoms. Timestep: 114
1 1.358357e-02 -3.467121e-02 1.327424e-01
1 2.905975e+00 2.808589e+00 -9.161211e-02
1 2.544052e+00 7.634129e-02 2.767479e+00
1 1.166913e-03 2.583740e+00 2.607497e+00
1 1.428201e+00 1.457168e+00 1.304678e+00
1 4.026777e+00 4.145197e+00 1.371374e+00
1 4.167890e+00 1.301655e+00 4.079966e+00
1 1.202341e+00 3.951949e+00 4.117899e+00
8
Atoms. Timestep: 116
1 1.452722e-02 -3.191566e-02 1.349290e-01
1 2.904142e+00 2.807791e+00 -9.168957e-02
1 2.543298e+00 7.438006e-02 2.769620e+00
1 -1.329222e-03 2.583378e+00 2.603320e+00
1 1.428559e+00 1.461298e+00 1.299365e+00
1 4.027914e+00 4.144647e+00 1.375490e+00
1 4.170582e+00 1.299819e+00 4.080425e+00
1 1.202294e+00 3.950569e+00 4.118565e+00
8
Atoms. Timestep: 118
1 1.570746e-02 -2.894078e-02 1.368318e-01
1 2.901888e+00 2.806823e+00 -9.185897e-02
1 2.542781e+00 7.210861e-02 2.771979e+00
1 -4.189674e-03 2.583530e+00 2.599347e+00
1 1.429273e+00 1.465307e+00 1.293578e+00
1 4.028931e+00 4.144039e+00 1.380218e+00
1 4.173098e+00 1.297760e+00 4.080816e+00
1 1.202498e+00 3.949337e+00 4.119114e+00
8
Atoms. Timestep: 120
1 1.711761e-02 -2.577294e-02 1.384524e-01
1 2.899244e+00 2.805696e+00 -9.211804e-02
1 2.542490e+00 6.955049e-02 2.774535e+00
1 -7.398722e-03 2.584191e+00 2.595594e+00
1 1.430352e+00 1.469178e+00 1.287356e+00
1 4.029819e+00 4.143378e+00 1.385529e+00
1 4.175427e+00 1.295490e+00 4.081136e+00
1 1.202935e+00 3.948254e+00 4.119541e+00
8
Atoms. Timestep: 122
1 1.874826e-02 -2.244135e-02 1.397946e-01
1 2.896246e+00 2.804421e+00 -9.246384e-02
1 2.542415e+00 6.673059e-02 2.777266e+00
1 -1.093563e-02 2.585348e+00 2.592073e+00
1 1.431799e+00 1.472892e+00 1.280743e+00
1 4.030569e+00 4.142669e+00 1.391386e+00
1 4.177557e+00 1.293022e+00 4.081383e+00
1 1.203588e+00 3.947321e+00 4.119845e+00
8
Atoms. Timestep: 124
1 2.058748e-02 -1.897775e-02 1.408647e-01
1 2.892931e+00 2.803015e+00 -9.289309e-02
1 2.542545e+00 6.367496e-02 2.780151e+00
1 -1.477463e-02 2.586982e+00 2.588792e+00
1 1.433612e+00 1.476435e+00 1.273790e+00
1 4.031174e+00 4.141921e+00 1.397749e+00
1 4.179475e+00 1.290371e+00 4.081552e+00
1 1.204436e+00 3.946539e+00 4.120021e+00
8
Atoms. Timestep: 126
1 2.262099e-02 -1.541609e-02 1.416707e-01
1 2.889342e+00 2.801494e+00 -9.340242e-02
1 2.542867e+00 6.041065e-02 2.783165e+00
1 -1.888498e-02 2.589069e+00 2.585759e+00
1 1.435785e+00 1.479794e+00 1.266553e+00
1 4.031626e+00 4.141144e+00 1.404571e+00
1 4.181171e+00 1.287554e+00 4.081642e+00
1 1.205460e+00 3.945910e+00 4.120069e+00
8
Atoms. Timestep: 128
1 2.483245e-02 -1.179204e-02 1.422229e-01
1 2.885524e+00 2.799876e+00 -9.398876e-02
1 2.543368e+00 5.696552e-02 2.786287e+00
1 -2.323122e-02 2.591580e+00 2.582979e+00
1 1.438304e+00 1.482958e+00 1.259090e+00
1 4.031918e+00 4.140349e+00 1.411802e+00
1 4.182634e+00 1.284587e+00 4.081649e+00
1 1.206639e+00 3.945433e+00 4.119986e+00
8
Atoms. Timestep: 130
1 2.720374e-02 -8.142578e-03 1.425329e-01
1 2.881525e+00 2.798183e+00 -9.464951e-02
1 2.544035e+00 5.336806e-02 2.789493e+00
1 -2.777354e-02 2.594481e+00 2.580456e+00
1 1.441151e+00 1.485916e+00 1.251468e+00
1 4.032041e+00 4.139550e+00 1.419388e+00
1 4.183856e+00 1.281490e+00 4.081570e+00
1 1.207950e+00 3.945110e+00 4.119771e+00
8
Atoms. Timestep: 132
1 2.971531e-02 -4.505416e-03 1.426136e-01
1 2.877395e+00 2.796435e+00 -9.538287e-02
1 2.544856e+00 4.964719e-02 2.792759e+00
1 -3.246826e-02 2.597733e+00 2.578191e+00
1 1.444303e+00 1.488660e+00 1.243754e+00
1 4.031989e+00 4.138763e+00 1.427269e+00
1 4.184827e+00 1.278281e+00 4.081402e+00
1 1.209372e+00 3.944941e+00 4.119422e+00
8
Atoms. Timestep: 134
1 3.234648e-02 -9.184857e-04 1.424793e-01
1 2.873186e+00 2.794657e+00 -9.618795e-02
1 2.545816e+00 4.583210e-02 2.796063e+00
1 -3.726848e-02 2.601292e+00 2.576187e+00
1 1.447733e+00 1.491180e+00 1.236019e+00
1 4.031753e+00 4.138005e+00 1.435386e+00
1 4.185541e+00 1.274980e+00 4.081143e+00
1 1.210883e+00 3.944925e+00 4.118940e+00
8
Atoms. Timestep: 136
1 3.507583e-02 2.580630e-03 1.421448e-01
1 2.868952e+00 2.792872e+00 -9.706490e-02
1 2.546901e+00 4.195205e-02 2.799383e+00
1 -4.212477e-02 2.605114e+00 2.574444e+00
1 1.451408e+00 1.493470e+00 1.228334e+00
1 4.031325e+00 4.137296e+00 1.443674e+00
1 4.185992e+00 1.271606e+00 4.080790e+00
1 1.212460e+00 3.945061e+00 4.118325e+00
8
Atoms. Timestep: 138
1 3.788147e-02 5.955253e-03 1.416256e-01
1 2.864746e+00 2.791107e+00 -9.801499e-02
1 2.548098e+00 3.803615e-02 2.802698e+00
1 -4.698602e-02 2.609147e+00 2.572964e+00
1 1.455295e+00 1.495521e+00 1.220773e+00
1 4.030700e+00 4.136654e+00 1.452068e+00
1 4.186175e+00 1.268180e+00 4.080341e+00
1 1.214080e+00 3.945348e+00 4.117577e+00
8
Atoms. Timestep: 140
1 4.074142e-02 9.170143e-03 1.409375e-01
1 2.860622e+00 2.789386e+00 -9.904056e-02
1 2.549393e+00 3.411326e-02 2.805987e+00
1 -5.180029e-02 2.613343e+00 2.571746e+00
1 1.459355e+00 1.497327e+00 1.213406e+00
1 4.029868e+00 4.136101e+00 1.460502e+00
1 4.186087e+00 1.264723e+00 4.079794e+00
1 1.215724e+00 3.945784e+00 4.116699e+00
8
Atoms. Timestep: 142
1 4.363383e-02 1.219199e-02 1.400962e-01
1 2.856632e+00 2.787736e+00 -1.001449e-01
1 2.550772e+00 3.021173e-02 2.809233e+00
1 -5.651567e-02 2.617648e+00 2.570791e+00
1 1.463549e+00 1.498879e+00 1.206306e+00
1 4.028825e+00 4.135658e+00 1.468911e+00
1 4.185727e+00 1.261254e+00 4.079147e+00
1 1.217368e+00 3.946367e+00 4.115692e+00
8
Atoms. Timestep: 144
1 4.653731e-02 1.498987e-02 1.391171e-01
1 2.852826e+00 2.786183e+00 -1.013322e-01
1 2.552219e+00 2.635934e-02 2.812418e+00
1 -6.108122e-02 2.622012e+00 2.570101e+00
1 1.467836e+00 1.500171e+00 1.199538e+00
1 4.027563e+00 4.135343e+00 1.477230e+00
1 4.185096e+00 1.257793e+00 4.078400e+00
1 1.218994e+00 3.947094e+00 4.114560e+00
8
Atoms. Timestep: 146
1 4.943106e-02 1.753560e-02 1.380154e-01
1 2.849254e+00 2.784751e+00 -1.026072e-01
1 2.553722e+00 2.258309e-02 2.815525e+00
1 -6.544780e-02 2.626382e+00 2.569676e+00
1 1.472177e+00 1.501196e+00 1.193169e+00
1 4.026079e+00 4.135178e+00 1.485395e+00
1 4.184195e+00 1.254358e+00 4.077553e+00
1 1.220582e+00 3.947960e+00 4.113307e+00
8
Atoms. Timestep: 148
1 5.229507e-02 1.980406e-02 1.368055e-01
1 2.845960e+00 2.783465e+00 -1.039747e-01
1 2.555265e+00 1.890914e-02 2.818540e+00
1 -6.956889e-02 2.630709e+00 2.569517e+00
1 1.476530e+00 1.501945e+00 1.187258e+00
1 4.024370e+00 4.135179e+00 1.493345e+00
1 4.183028e+00 1.250969e+00 4.076606e+00
1 1.222114e+00 3.948960e+00 4.111936e+00
8
Atoms. Timestep: 150
1 5.511023e-02 2.177345e-02 1.355012e-01
1 2.842984e+00 2.782346e+00 -1.054399e-01
1 2.556835e+00 1.536269e-02 2.821449e+00
1 -7.340126e-02 2.634947e+00 2.569624e+00
1 1.480858e+00 1.502413e+00 1.181860e+00
1 4.022434e+00 4.135364e+00 1.501021e+00
1 4.181601e+00 1.247643e+00 4.075563e+00
1 1.223573e+00 3.950090e+00 4.110455e+00
8
Atoms. Timestep: 152
1 5.785835e-02 2.342536e-02 1.341152e-01
1 2.840365e+00 2.781416e+00 -1.070071e-01
1 2.558415e+00 1.196792e-02 2.824241e+00
1 -7.690567e-02 2.639051e+00 2.569998e+00
1 1.485123e+00 1.502592e+00 1.177025e+00
1 4.020272e+00 4.135745e+00 1.508370e+00
1 4.179923e+00 1.244397e+00 4.074424e+00
1 1.224943e+00 3.951344e+00 4.108867e+00
8
Atoms. Timestep: 154
1 6.052222e-02 2.474493e-02 1.326598e-01
1 2.838135e+00 2.780694e+00 -1.086803e-01
1 2.559992e+00 8.747923e-03 2.826905e+00
1 -8.004733e-02 2.642979e+00 2.570639e+00
1 1.489292e+00 1.502479e+00 1.172796e+00
1 4.017888e+00 4.136332e+00 1.515339e+00
1 4.178002e+00 1.241246e+00 4.073194e+00
1 1.226211e+00 3.952713e+00 4.107182e+00
8
Atoms. Timestep: 156
1 6.308557e-02 2.572082e-02 1.311459e-01
1 2.836319e+00 2.780194e+00 -1.104620e-01
1 2.561549e+00 5.724653e-03 2.829430e+00
1 -8.279631e-02 2.646696e+00 2.571544e+00
1 1.493335e+00 1.502067e+00 1.169211e+00
1 4.015288e+00 4.137134e+00 1.521881e+00
1 4.175851e+00 1.238207e+00 4.071878e+00
1 1.227364e+00 3.954191e+00 4.105406e+00
8
Atoms. Timestep: 158
1 6.553306e-02 2.634512e-02 1.295838e-01
1 2.834941e+00 2.779931e+00 -1.123535e-01
1 2.563071e+00 2.918903e-03 2.831809e+00
1 -8.512785e-02 2.650169e+00 2.572712e+00
1 1.497223e+00 1.501355e+00 1.166301e+00
1 4.012481e+00 4.138152e+00 1.527953e+00
1 4.173483e+00 1.235292e+00 4.070483e+00
1 1.228392e+00 3.955769e+00 4.103548e+00
8
Atoms. Timestep: 160
1 6.785013e-02 2.661331e-02 1.279829e-01
1 2.834016e+00 2.779915e+00 -1.143543e-01
1 2.564542e+00 3.502500e-04 2.834033e+00
1 -8.702249e-02 2.653370e+00 2.574137e+00
1 1.500935e+00 1.500342e+00 1.164090e+00
1 4.009478e+00 4.139388e+00 1.533516e+00
1 4.170913e+00 1.232515e+00 4.069015e+00
1 1.229286e+00 3.957438e+00 4.101617e+00
8
Atoms. Timestep: 162
1 7.002305e-02 2.652406e-02 1.263519e-01
1 2.833554e+00 2.780155e+00 -1.164617e-01
1 2.565943e+00 -1.962985e-03 2.836096e+00
1 -8.846619e-02 2.656276e+00 2.575815e+00
1 1.504450e+00 1.499027e+00 1.162596e+00
1 4.006295e+00 4.140834e+00 1.538535e+00
1 4.168159e+00 1.229888e+00 4.067483e+00
1 1.230040e+00 3.959188e+00 4.099621e+00
8
Atoms. Timestep: 164
1 7.203875e-02 2.607907e-02 1.246987e-01
1 2.833561e+00 2.780654e+00 -1.186711e-01
1 2.567258e+00 -4.003799e-03 2.837992e+00
1 -8.945026e-02 2.658868e+00 2.577738e+00
1 1.507753e+00 1.497416e+00 1.161831e+00
1 4.002950e+00 4.142484e+00 1.542981e+00
1 4.165239e+00 1.227422e+00 4.065896e+00
1 1.230649e+00 3.961009e+00 4.097572e+00
8
Atoms. Timestep: 166
1 7.388481e-02 2.528291e-02 1.230309e-01
1 2.834036e+00 2.781415e+00 -1.209754e-01
1 2.568469e+00 -5.756580e-03 2.839714e+00
1 -8.997125e-02 2.661132e+00 2.579895e+00
1 1.510835e+00 1.495512e+00 1.161801e+00
1 3.999463e+00 4.144324e+00 1.546827e+00
1 4.162174e+00 1.225127e+00 4.064265e+00
1 1.231109e+00 3.962889e+00 4.095480e+00
8
Atoms. Timestep: 168
1 7.554939e-02 2.414277e-02 1.213555e-01
1 2.834973e+00 2.782438e+00 -1.233652e-01
1 2.569557e+00 -7.207215e-03 2.841260e+00
1 -9.003078e-02 2.663059e+00 2.582275e+00
1 1.513687e+00 1.493324e+00 1.162505e+00
1 3.995859e+00 4.146337e+00 1.550051e+00
1 4.158985e+00 1.223013e+00 4.062601e+00