8
Atoms. Timestep: 0
1 0.000000e+00 0.000000e+00 0.000000e+00
1 2.715000e+00 2.715000e+00 0.000000e+00
1 2.715000e+00 0.000000e+00 2.715000e+00
1 0.000000e+00 2.715000e+00 2.715000e+00
1 1.357500e+00 1.357500e+00 1.357500e+00
1 4.072500e+00 4.072500e+00 1.357500e+00
1 4.072500e+00 1.357500e+00 4.072500e+00
1 1.357500e+00 4.072500e+00 4.072500e+00
8
Atoms. Timestep: 2000
1 -3.024653e-03 7.886117e-02 -4.478037e-02
1 2.572096e+00 2.604513e+00 1.228855e-01
1 2.859395e+00 -3.004981e-02 2.629248e+00
1 -3.010477e-03 2.777351e+00 2.723506e+00
1 1.224646e+00 1.323538e+00 1.358288e+00
1 4.170463e+00 3.971475e+00 1.323589e+00
1 4.063341e+00 1.441991e+00 4.099681e+00
1 1.406095e+00 4.122320e+00 4.077583e+00
8
Atoms. Timestep: 4000
1 1.766668e-02 -5.647479e-02 1.455533e-01
1 2.930963e+00 2.823972e+00 -1.129710e-01
1 2.505188e+00 7.666827e-02 2.784011e+00
1 -1.475536e-02 2.584486e+00 2.611693e+00
1 1.480203e+00 1.473811e+00 1.284797e+00
1 4.003658e+00 4.176919e+00 1.416985e+00
1 4.174063e+00 1.263761e+00 4.065081e+00
1 1.193014e+00 3.946857e+00 4.094850e+00
8
Atoms. Timestep: 6000
1 -4.426823e-02 1.234416e-02 -1.497235e-01
1 2.529179e+00 2.648221e+00 8.772247e-02
1 2.890992e+00 -5.082763e-02 2.645219e+00
1 4.057008e-02 2.822275e+00 2.849340e+00
1 1.257944e+00 1.216528e+00 1.497740e+00
1 4.123337e+00 3.989212e+00 1.242615e+00
1 3.957931e+00 1.456026e+00 4.068557e+00
1 1.534315e+00 4.196221e+00 4.048530e+00
8
Atoms. Timestep: 8000
1 5.832484e-02 -3.836345e-03 3.110839e-02
1 2.796933e+00 2.753821e+00 -9.348310e-02
1 2.639084e+00 -3.536418e-02 2.823128e+00
1 -4.642876e-02 2.712714e+00 2.665859e+00
1 1.466220e+00 1.426609e+00 1.231038e+00
1 3.985961e+00 4.144996e+00 1.511196e+00
1 4.082483e+00 1.249986e+00 4.059324e+00
1 1.307423e+00 4.041074e+00 4.061830e+00
8
Atoms. Timestep: 10000
1 -3.242464e-02 -2.337926e-02 3.180152e-02
1 2.745011e+00 2.738439e+00 7.453773e-03
1 2.675692e+00 4.821801e-02 2.682682e+00
1 1.952777e-02 2.670024e+00 2.712260e+00
1 1.349583e+00 1.355467e+00 1.409199e+00
1 4.095164e+00 4.072487e+00 1.288064e+00
1 4.102327e+00 1.382214e+00 4.074215e+00
1 1.335120e+00 4.046530e+00 4.084326e+00
8
Atoms. Timestep: 12000
1 -2.205185e-02 4.347558e-02 -3.876772e-02
1 2.607677e+00 2.634217e+00 1.129539e-01
1 2.839210e+00 2.414795e-03 2.610472e+00
1 3.150963e-02 2.745973e+00 2.740360e+00
1 1.219981e+00 1.307344e+00 1.423331e+00
1 4.161416e+00 3.982211e+00 1.261887e+00
1 4.055831e+00 1.459829e+00 4.096323e+00
1 1.396427e+00 4.114536e+00 4.083440e+00
8
Atoms. Timestep: 14000
1 6.196860e-02 2.836263e-03 1.095222e-01
1 2.859189e+00 2.773084e+00 -1.108010e-01
1 2.555440e+00 -3.167409e-03 2.838269e+00
1 -7.693824e-02 2.661761e+00 2.598747e+00
1 1.502501e+00 1.491583e+00 1.165492e+00
1 3.996175e+00 4.166423e+00 1.548385e+00
1 4.159376e+00 1.218444e+00 4.064899e+00
1 1.232290e+00 3.979036e+00 4.075486e+00
8
Atoms. Timestep: 16000
1 -5.879927e-02 -2.998548e-02 -1.487602e-01
1 2.573503e+00 2.684689e+00 6.706785e-02
1 2.869776e+00 -2.152023e-02 2.634297e+00
1 7.968030e-02 2.791734e+00 2.870936e+00
1 1.260040e+00 1.198279e+00 1.566090e+00
1 4.100386e+00 4.007773e+00 1.185164e+00
1 3.940126e+00 1.467881e+00 4.062628e+00
1 1.525289e+00 4.191150e+00 4.052577e+00
8
Atoms. Timestep: 18000
1 1.717578e-02 -2.557377e-02 5.707573e-02
1 2.811207e+00 2.776327e+00 -8.313420e-02
1 2.598468e+00 9.893421e-03 2.792579e+00
1 -3.462988e-02 2.674974e+00 2.670624e+00
1 1.465242e+00 1.417827e+00 1.284549e+00
1 4.016467e+00 4.141849e+00 1.439350e+00
1 4.114414e+00 1.274959e+00 4.058679e+00
1 1.301656e+00 4.019745e+00 4.070278e+00
8
Atoms. Timestep: 20000
1 3.652231e-02 5.232856e-02 2.553615e-02
1 2.702905e+00 2.664235e+00 3.627740e-02
1 2.750867e+00 -1.438759e-02 2.700348e+00
1 -1.911701e-02 2.721697e+00 2.660052e+00
1 1.311159e+00 1.400284e+00 1.279168e+00
1 4.097742e+00 4.045516e+00 1.412070e+00
1 4.099868e+00 1.360807e+00 4.092678e+00
1 1.310054e+00 4.059519e+00 4.083871e+00
8
Atoms. Timestep: 22000
1 -6.728349e-02 4.673305e-03 -3.634478e-02
1 2.618936e+00 2.674781e+00 9.845347e-02
1 2.791703e+00 3.476780e-02 2.604619e+00
1 4.231111e-02 2.722374e+00 2.771656e+00
1 1.250848e+00 1.280851e+00 1.490228e+00
1 4.167756e+00 3.995523e+00 1.196203e+00
1 4.063931e+00 1.468779e+00 4.084197e+00
1 1.421798e+00 4.108251e+00 4.080988e+00
8
Atoms. Timestep: 24000
1 5.696163e-02 -4.519644e-02 9.765406e-02
1 2.908455e+00 2.813134e+00 -1.428932e-01
1 2.543185e+00 1.623818e-02 2.837541e+00
1 -3.137122e-02 2.638797e+00 2.628767e+00
1 1.508667e+00 1.468229e+00 1.236187e+00
1 3.954005e+00 4.192371e+00 1.500440e+00
1 4.121957e+00 1.223584e+00 4.056166e+00
1 1.228140e+00 3.982844e+00 4.076138e+00
8
Atoms. Timestep: 26000
1 -2.660492e-02 4.360117e-02 -1.622781e-01
1 2.491741e+00 2.622894e+00 9.152148e-02
1 2.909677e+00 -8.698958e-02 2.670461e+00
1 5.335480e-03 2.857911e+00 2.839723e+00
1 1.271017e+00 1.227782e+00 1.436046e+00
1 4.126580e+00 3.982433e+00 1.306005e+00
1 3.959271e+00 1.434087e+00 4.068866e+00
1 1.552983e+00 4.208281e+00 4.039656e+00
8
Atoms. Timestep: 28000
1 1.038836e-02 -5.305091e-02 8.026682e-02
1 2.864222e+00 2.793543e+00 -7.691643e-02
1 2.592269e+00 5.433870e-02 2.750523e+00
1 1.530013e-02 2.627405e+00 2.666259e+00
1 1.424330e+00 1.415594e+00 1.347939e+00
1 4.014255e+00 4.142628e+00 1.368508e+00
1 4.113884e+00 1.308713e+00 4.066025e+00
1 1.255352e+00 4.000829e+00 4.087395e+00
8
Atoms. Timestep: 30000
1 -1.204280e-02 2.631550e-02 4.829325e-02
1 2.712192e+00 2.695907e+00 3.586770e-02
1 2.694536e+00 2.703918e-02 2.684386e+00
1 -1.888733e-02 2.688803e+00 2.671702e+00
1 1.334533e+00 1.388646e+00 1.328709e+00
1 4.125552e+00 4.049928e+00 1.347900e+00
1 4.134597e+00 1.374079e+00 4.086206e+00
1 1.319521e+00 4.039282e+00 4.086935e+00
8
Atoms. Timestep: 32000
1 1.092651e-02 6.107327e-02 -7.862932e-02
1 2.578628e+00 2.615308e+00 9.908432e-02
1 2.880574e+00 -4.916876e-02 2.647518e+00
1 1.578074e-02 2.794469e+00 2.751455e+00
1 1.232470e+00 1.303185e+00 1.378991e+00
1 4.130022e+00 3.986397e+00 1.330461e+00
1 4.015699e+00 1.432831e+00 4.091950e+00
1 1.425900e+00 4.145905e+00 4.069171e+00
8
Atoms. Timestep: 34000
1 3.687851e-03 -8.679167e-02 1.000114e-01
1 2.915298e+00 2.860031e+00 -1.625497e-01
1 2.482767e+00 4.864634e-02 2.839107e+00
1 -2.903935e-02 2.616638e+00 2.664264e+00
1 1.555487e+00 1.439699e+00 1.302211e+00
1 3.962453e+00 4.209454e+00 1.435974e+00
1 4.135487e+00 1.226539e+00 4.040361e+00
1 1.263859e+00 3.975785e+00 4.070621e+00
8
Atoms. Timestep: 36000
1 -2.463886e-02 1.303742e-02 -1.470971e-01
1 2.549577e+00 2.643347e+00 8.658666e-02
1 2.906924e+00 -5.169653e-02 2.640291e+00
1 5.646799e-02 2.816634e+00 2.839189e+00
1 1.237828e+00 1.224820e+00 1.494474e+00
1 4.108485e+00 3.990719e+00 1.249188e+00
1 3.946085e+00 1.458505e+00 4.073697e+00
1 1.509273e+00 4.194635e+00 4.053671e+00
8
Atoms. Timestep: 38000
1 3.402284e-02 3.250489e-02 8.193327e-02
1 2.772510e+00 2.720580e+00 -3.207267e-02
1 2.630119e+00 -4.809880e-04 2.769209e+00
1 -6.568358e-02 2.686179e+00 2.622093e+00
1 1.420688e+00 1.452241e+00 1.212535e+00
1 4.067450e+00 4.103202e+00 1.478247e+00
1 4.156394e+00 1.287365e+00 4.078137e+00
1 1.274500e+00 4.008410e+00 4.079918e+00
8
Atoms. Timestep: 40000
1 -1.105067e-02 -1.729765e-02 5.318064e-02
1 2.776933e+00 2.729325e+00 1.526197e-02
1 2.686348e+00 5.909521e-02 2.665748e+00
1 3.715669e-02 2.650042e+00 2.684579e+00
1 1.316405e+00 1.376962e+00 1.399339e+00
1 4.090685e+00 4.069398e+00 1.290105e+00
1 4.107123e+00 1.390954e+00 4.085192e+00
1 1.286400e+00 4.031523e+00 4.096594e+00
8
Atoms. Timestep: 42000
1 -4.213194e-02 2.161183e-02 -8.479666e-02
1 2.575009e+00 2.660152e+00 7.801475e-02
1 2.824692e+00 -2.492999e-02 2.655277e+00
1 1.303483e-02 2.782003e+00 2.792736e+00
1 1.284847e+00 1.270393e+00 1.441119e+00
1 4.136908e+00 4.003262e+00 1.273483e+00
1 4.023978e+00 1.432070e+00 4.074149e+00
1 1.473661e+00 4.145438e+00 4.060018e+00
8
Atoms. Timestep: 44000
1 8.620325e-02 -2.515102e-02 6.959737e-02
1 2.882981e+00 2.795170e+00 -1.545757e-01
1 2.572701e+00 -2.878844e-02 2.872801e+00
1 -5.282921e-02 2.679983e+00 2.631010e+00
1 1.524163e+00 1.471683e+00 1.185003e+00
1 3.930672e+00 4.196113e+00 1.568997e+00
1 4.096353e+00 1.195718e+00 4.053045e+00
1 1.249757e+00 4.005272e+00 4.064122e+00
8
Atoms. Timestep: 46000
1 -8.294178e-02 -1.013402e-02 -1.134812e-01
1 2.555944e+00 2.672786e+00 9.721837e-02
1 2.843815e+00 8.835136e-04 2.612074e+00
1 5.481177e-02 2.775149e+00 2.845226e+00
1 1.254459e+00 1.215514e+00 1.548376e+00
1 4.153393e+00 3.988051e+00 1.170273e+00
1 3.996527e+00 1.480879e+00 4.069893e+00
1 1.513992e+00 4.166870e+00 4.060421e+00
8
Atoms. Timestep: 48000
1 3.759367e-02 4.828217e-03 9.645154e-02
1 2.827707e+00 2.736352e+00 -3.185547e-02
1 2.634356e+00 3.460038e-02 2.734122e+00
1 -1.231396e-02 2.645688e+00 2.620438e+00
1 1.379299e+00 1.448986e+00 1.271611e+00
1 4.052147e+00 4.107479e+00 1.419341e+00
1 4.142183e+00 1.316132e+00 4.084805e+00
1 1.229028e+00 3.995935e+00 4.095087e+00
8
Atoms. Timestep: 50000
1 1.437528e-02 4.916426e-02 3.004028e-02
1 2.688977e+00 2.677655e+00 2.717672e-02
1 2.715548e+00 -1.259656e-02 2.717162e+00
1 -4.488082e-02 2.724107e+00 2.666207e+00
1 1.350901e+00 1.398493e+00 1.271677e+00
1 4.109716e+00 4.052394e+00 1.416175e+00
1 4.121118e+00 1.346346e+00 4.084528e+00
1 1.334245e+00 4.054439e+00 4.077034e+00
8
Atoms. Timestep: 52000
1 -4.238187e-02 -3.123788e-02 -9.869733e-02
1 2.633866e+00 2.700933e+00 4.589983e-02
1 2.820969e+00 -2.545821e-03 2.648068e+00
1 7.183572e-02 2.754773e+00 2.824463e+00
1 1.279171e+00 1.244532e+00 1.523736e+00
1 4.087794e+00 4.029534e+00 1.216458e+00
1 3.976962e+00 1.443293e+00 4.066979e+00
1 1.461784e+00 4.150718e+00 4.063093e+00
8
Atoms. Timestep: 54000
1 3.447650e-02 -5.042092e-02 8.773855e-02
1 2.884029e+00 2.826615e+00 -1.552391e-01
1 2.516321e+00 9.101871e-03 2.860117e+00
1 -5.710763e-02 2.652482e+00 2.647270e+00
1 1.552872e+00 1.456391e+00 1.233948e+00
1 3.960203e+00 4.200006e+00 1.506600e+00
1 4.130234e+00 1.207279e+00 4.044853e+00
1 1.268972e+00 3.988545e+00 4.064713e+00
8
Atoms. Timestep: 56000
1 -3.550191e-03 6.717583e-02 -1.183231e-01
1 2.523375e+00 2.593002e+00 1.300766e-01
1 2.932406e+00 -6.061009e-02 2.621558e+00
1 2.773518e-02 2.822998e+00 2.787240e+00
1 1.197844e+00 1.263786e+00 1.420062e+00
1 4.151063e+00 3.958443e+00 1.292727e+00
1 3.987310e+00 1.465722e+00 4.092622e+00
1 1.473816e+00 4.179484e+00 4.064037e+00
8
Atoms. Timestep: 58000
1 -1.872210e-02 -2.626303e-02 1.151552e-01
1 2.833063e+00 2.771485e+00 -3.114026e-02
1 2.577110e+00 7.942129e-02 2.714460e+00
1 -8.810575e-03 2.612403e+00 2.640480e+00
1 1.403063e+00 1.429262e+00 1.335435e+00
1 4.082710e+00 4.110892e+00 1.341611e+00
1 4.174575e+00 1.334301e+00 4.076700e+00
1 1.247011e+00 3.978499e+00 4.097299e+00
8
Atoms. Timestep: 60000
1 1.752513e-02 3.167753e-03 1.918660e-02
1 2.744178e+00 2.714894e+00 -5.628625e-03
1 2.708919e+00 4.608632e-03 2.716684e+00
1 3.851743e-03 2.700712e+00 2.691348e+00
1 1.351479e+00 1.379518e+00 1.336696e+00
1 4.062244e+00 4.078968e+00 1.375033e+00
1 4.080307e+00 1.350422e+00 4.077613e+00
1 1.321496e+00 4.057708e+00 4.079068e+00
8
Atoms. Timestep: 62000
1 -1.338949e-02 3.479415e-02 -1.276403e-01
1 2.545001e+00 2.646425e+00 5.965759e-02
1 2.860851e+00 -7.658258e-02 2.696262e+00
1 -3.792825e-03 2.831513e+00 2.809536e+00
1 1.305433e+00 1.262210e+00 1.401690e+00
1 4.103395e+00 4.010621e+00 1.339660e+00
1 3.982183e+00 1.402637e+00 4.067123e+00
1 1.510319e+00 4.178382e+00 4.043711e+00
8
Atoms. Timestep: 64000
1 2.709232e-02 -8.534622e-02 1.068002e-01
1 2.942398e+00 2.852153e+00 -1.590993e-01
1 2.504213e+00 5.212514e-02 2.825974e+00
1 -5.761082e-03 2.605423e+00 2.649150e+00
1 1.522782e+00 1.450774e+00 1.302165e+00
1 3.948288e+00 4.208193e+00 1.436925e+00
1 4.123475e+00 1.235149e+00 4.048701e+00
1 1.227512e+00 3.971529e+00 4.079384e+00
8
Atoms. Timestep: 66000
1 -4.838959e-02 5.022599e-02 -8.755302e-02
1 2.531703e+00 2.614368e+00 1.417193e-01
1 2.883596e+00 -1.589522e-02 2.594603e+00
1 2.875588e-02 2.786410e+00 2.787723e+00
1 1.204838e+00 1.259287e+00 1.462537e+00
1 4.188917e+00 3.954422e+00 1.227785e+00
1 4.029976e+00 1.486504e+00 4.091579e+00
1 1.470603e+00 4.154678e+00 4.071607e+00
8
Atoms. Timestep: 68000
1 5.315278e-02 3.813484e-02 8.540919e-02
1 2.787561e+00 2.705575e+00 -1.766255e-02
1 2.661122e+00 3.672606e-03 2.746543e+00
1 -4.131253e-02 2.678076e+00 2.609938e+00
1 1.377104e+00 1.458122e+00 1.218717e+00
1 4.063656e+00 4.093190e+00 1.469440e+00
1 4.144768e+00 1.305403e+00 4.088289e+00
1 1.243948e+00 4.007826e+00 4.089325e+00
8
Atoms. Timestep: 70000
1 -2.834502e-02 -4.595935e-02 1.670642e-02
1 2.763720e+00 2.767407e+00 -3.471042e-02
1 2.652019e+00 3.513234e-02 2.722468e+00
1 1.607119e-02 2.677368e+00 2.730554e+00
1 1.398300e+00 1.349172e+00 1.409181e+00
1 4.054871e+00 4.103091e+00 1.311944e+00
1 4.080545e+00 1.350421e+00 4.060590e+00
1 1.352819e+00 4.053368e+00 4.073268e+00
8
Atoms. Timestep: 72000
1 -2.078439e-02 3.223976e-04 -1.275150e-01
1 2.585101e+00 2.673156e+00 4.593459e-02
1 2.852245e+00 -5.157710e-02 2.681352e+00
1 3.582933e-02 2.804767e+00 2.825995e+00
1 1.295835e+00 1.247106e+00 1.461956e+00
1 4.082621e+00 4.023534e+00 1.288607e+00
1 3.962660e+00 1.417522e+00 4.064506e+00
1 1.496493e+00 4.175169e+00 4.049165e+00
8
Atoms. Timestep: 74000
1 6.522997e-02 -2.914284e-03 1.076923e-01
1 2.868064e+00 2.779262e+00 -1.196754e-01
1 2.552215e+00 -4.285006e-03 2.844423e+00
1 -7.362433e-02 2.660633e+00 2.600986e+00
1 1.508569e+00 1.491377e+00 1.167415e+00
1 3.985554e+00 4.173175e+00 1.551637e+00
1 4.153247e+00 1.213306e+00 4.063000e+00
1 1.230746e+00 3.979446e+00 4.074523e+00
8
Atoms. Timestep: 76000
1 -6.671452e-02 1.561616e-02 -6.634135e-02
1 2.580934e+00 2.642890e+00 1.386101e-01
1 2.859497e+00 2.927165e-02 2.563032e+00
1 7.001785e-02 2.740179e+00 2.792102e+00
1 1.186550e+00 1.251879e+00 1.529884e+00
1 4.186558e+00 3.962059e+00 1.155450e+00
1 4.033530e+00 1.512319e+00 4.093056e+00
1 1.439628e+00 4.135786e+00 4.084206e+00
8
Atoms. Timestep: 78000
1 2.052101e-02 2.506827e-03 8.114401e-02
1 2.800490e+00 2.741048e+00 -3.490075e-02
1 2.627072e+00 2.649391e-02 2.745305e+00
1 -2.735504e-02 2.661331e+00 2.640206e+00
1 1.402816e+00 1.433246e+00 1.277384e+00
1 4.059151e+00 4.107636e+00 1.417645e+00
1 4.141024e+00 1.310773e+00 4.077141e+00
1 1.266281e+00 4.006966e+00 4.086077e+00
8
Atoms. Timestep: 80000
1 3.389345e-02 1.133356e-02 -1.902865e-02
1 2.712279e+00 2.713977e+00 -3.545813e-02
1 2.717482e+00 -4.540915e-02 2.772556e+00
1 -2.889741e-02 2.749391e+00 2.711031e+00
1 1.402483e+00 1.372344e+00 1.291153e+00
1 4.030892e+00 4.095312e+00 1.447040e+00
1 4.051532e+00 1.307624e+00 4.064441e+00
1 1.370337e+00 4.085428e+00 4.058265e+00
8
Atoms. Timestep: 82000
1 -5.769651e-02 -3.506937e-02 -1.112848e-01
1 2.612878e+00 2.706507e+00 4.267554e-02
1 2.813691e+00 -7.742881e-03 2.656666e+00
1 6.091479e-02 2.766337e+00 2.841983e+00
1 1.298905e+00 1.230475e+00 1.531875e+00
1 4.093088e+00 4.030331e+00 1.211991e+00
1 3.975564e+00 1.439567e+00 4.060315e+00
1 1.492656e+00 4.159596e+00 4.055779e+00
8
Atoms. Timestep: 84000
1 4.561690e-02 -2.091528e-02 1.348155e-01
1 2.899067e+00 2.794237e+00 -1.099137e-01
1 2.529953e+00 3.652191e-02 2.811125e+00
1 -4.896959e-02 2.620801e+00 2.594792e+00
1 1.488182e+00 1.491803e+00 1.211988e+00
1 4.001408e+00 4.170720e+00 1.492293e+00
1 4.173043e+00 1.238914e+00 4.067604e+00
1 1.201699e+00 3.957918e+00 4.087295e+00
8
Atoms. Timestep: 86000
1 -1.493497e-02 8.674168e-02 -8.200128e-02
1 2.519589e+00 2.577749e+00 1.603376e-01
1 2.918672e+00 -3.799226e-02 2.594201e+00
1 1.552563e-02 2.802184e+00 2.755789e+00
1 1.176574e+00 1.285274e+00 1.403296e+00
1 4.194261e+00 3.939079e+00 1.279218e+00
1 4.034513e+00 1.482232e+00 4.103528e+00
1 1.445799e+00 4.154732e+00 4.075632e+00
8
Atoms. Timestep: 88000
1 -1.104872e-02 -4.841265e-02 7.294233e-02
1 2.831574e+00 2.788349e+00 -6.209123e-02
1 2.592231e+00 5.538926e-02 2.742551e+00
1 3.924027e-03 2.636657e+00 2.679116e+00
1 1.426840e+00 1.401507e+00 1.359074e+00
1 4.039246e+00 4.130192e+00 1.350630e+00
1 4.123099e+00 1.318783e+00 4.063995e+00
1 1.284134e+00 4.007536e+00 4.083783e+00
8
Atoms. Timestep: 90000
1 1.648068e-02 -2.514688e-02 -1.979261e-02
1 2.743988e+00 2.748364e+00 -5.692588e-02
1 2.691232e+00 -2.300173e-02 2.770645e+00
1 -3.990282e-03 2.727150e+00 2.732725e+00
1 1.417307e+00 1.355361e+00 1.345434e+00
1 4.012757e+00 4.113636e+00 1.402826e+00
1 4.039788e+00 1.311813e+00 4.056457e+00
1 1.372438e+00 4.081825e+00 4.058632e+00
8
Atoms. Timestep: 92000
1 -1.159929e-02 4.389973e-02 -1.181047e-01
1 2.544001e+00 2.633592e+00 7.828640e-02
1 2.872971e+00 -6.840978e-02 2.675867e+00
1 2.630846e-03 2.824191e+00 2.798111e+00
1 1.278443e+00 1.267578e+00 1.402858e+00
1 4.118547e+00 3.997610e+00 1.327696e+00
1 3.990776e+00 1.418348e+00 4.074641e+00
1 1.494230e+00 4.173191e+00 4.050645e+00
8
Atoms. Timestep: 94000
1 2.155701e-02 -5.280498e-02 1.615325e-01
1 2.944281e+00 2.820983e+00 -1.069983e-01
1 2.501558e+00 8.643449e-02 2.774389e+00
1 -1.124177e-02 2.571496e+00 2.596131e+00
1 1.468260e+00 1.485857e+00 1.279154e+00
1 4.009285e+00 4.174325e+00 1.414325e+00
1 4.186145e+00 1.268420e+00 4.070215e+00
1 1.170156e+00 3.935290e+00 4.101252e+00
8
Atoms. Timestep: 96000
1 -4.562969e-02 5.551956e-02 -7.746719e-02
1 2.536336e+00 2.610228e+00 1.467580e-01
1 2.881803e+00 -1.181460e-02 2.589807e+00
1 2.733212e-02 2.780554e+00 2.776605e+00
1 1.198359e+00 1.268076e+00 1.453867e+00
1 4.194567e+00 3.951603e+00 1.230318e+00
1 4.039526e+00 1.488189e+00 4.094987e+00
1 1.457705e+00 4.147645e+00 4.075125e+00
8
Atoms. Timestep: 98000
1 5.370597e-02 7.847990e-03 3.010088e-02
1 2.777828e+00 2.732809e+00 -6.171913e-02
1 2.667789e+00 -2.810234e-02 2.790478e+00
1 -3.533705e-02 2.712389e+00 2.664714e+00
1 1.424695e+00 1.419555e+00 1.247470e+00
1 4.011658e+00 4.120897e+00 1.482699e+00
1 4.084705e+00 1.279372e+00 4.067992e+00
1 1.304956e+00 4.045233e+00 4.068266e+00
8
Atoms. Timestep: 100000
1 -2.779367e-02 -6.598844e-02 -5.153060e-03
1 2.769996e+00 2.791271e+00 -6.995828e-02
1 2.637386e+00 1.969419e-02 2.757425e+00
1 1.279734e-02 2.690620e+00 2.754799e+00
1 1.441145e+00 1.336065e+00 1.414866e+00
1 4.020662e+00 4.127594e+00 1.329688e+00
1 4.055508e+00 1.324621e+00 4.047199e+00
1 1.380300e+00 4.066124e+00 4.061134e+00
8
Atoms. Timestep: 102000
1 -1.855939e-02 2.533171e-02 -9.647388e-02
1 2.583189e+00 2.644671e+00 8.713387e-02
1 2.867058e+00 -3.179166e-02 2.640081e+00
1 3.933548e-02 2.785686e+00 2.791501e+00
1 1.244314e+00 1.267900e+00 1.449869e+00
1 4.122531e+00 3.995477e+00 1.271308e+00
1 3.995874e+00 1.446575e+00 4.081545e+00
1 1.456258e+00 4.156151e+00 4.065035e+00
8
Atoms. Timestep: 104000
1 5.628911e-02 2.506009e-02 1.551968e-01
1 2.866022e+00 2.753652e+00 -7.470197e-02
1 2.545580e+00 2.585269e-02 2.801160e+00
1 -8.208184e-02 2.632010e+00 2.556702e+00
1 1.466264e+00 1.520570e+00 1.147565e+00
1 4.041441e+00 4.143890e+00 1.531136e+00
1 4.210673e+00 1.241120e+00 4.080511e+00
1 1.185813e+00 3.947846e+00 4.092432e+00
8
Atoms. Timestep: 106000
1 -5.686302e-02 2.016520e-03 -8.236842e-02
1 2.593516e+00 2.655376e+00 1.162306e-01
1 2.861891e+00 1.839027e-02 2.581412e+00
1 7.855737e-02 2.747210e+00 2.805819e+00
1 1.201431e+00 1.244376e+00 1.536631e+00
1 4.156446e+00 3.977649e+00 1.166696e+00
1 4.007688e+00 1.499219e+00 4.086883e+00
1 1.447335e+00 4.145764e+00 4.078697e+00
8
Atoms. Timestep: 108000
1 1.187528e-02 -2.587775e-02 2.416829e-02
1 2.777613e+00 2.769784e+00 -7.928782e-02
1 2.624621e+00 -7.754121e-03 2.795376e+00
1 -3.384469e-02 2.701248e+00 2.699148e+00
1 1.464464e+00 1.391941e+00 1.301527e+00
1 4.014871e+00 4.134993e+00 1.433949e+00
1 4.088354e+00 1.280184e+00 4.053778e+00
1 1.342045e+00 4.045482e+00 4.061341e+00
8
Atoms. Timestep: 110000
1 4.768714e-02 3.908569e-03 -1.953656e-02
1 2.734510e+00 2.720866e+00 -4.945599e-02
1 2.718425e+00 -4.776471e-02 2.780559e+00
1 -1.854474e-02 2.745242e+00 2.708586e+00
1 1.403933e+00 1.377039e+00 1.289929e+00
1 4.008887e+00 4.106291e+00 1.456961e+00
1 4.038701e+00 1.299879e+00 4.063906e+00
1 1.356402e+00 4.084539e+00 4.059051e+00
8
Atoms. Timestep: 112000
1 -7.569215e-02 -9.291032e-04 -6.275217e-02
1 2.595323e+00 2.674182e+00 1.001091e-01
1 2.809182e+00 2.507442e-02 2.604548e+00
1 4.707277e-02 2.739724e+00 2.798328e+00
1 1.250904e+00 1.256597e+00 1.514063e+00
1 4.165928e+00 3.991456e+00 1.182251e+00
1 4.042046e+00 1.475490e+00 4.079305e+00
1 1.455237e+00 4.128405e+00 4.074148e+00
8
Atoms. Timestep: 114000
1 6.073842e-02 -5.344745e-03 1.592324e-01
1 2.915588e+00 2.774723e+00 -8.656340e-02
1 2.546106e+00 4.983442e-02 2.782997e+00
1 -3.659652e-02 2.602480e+00 2.563776e+00
1 1.444256e+00 1.513083e+00 1.200136e+00
1 4.015579e+00 4.155828e+00 1.487336e+00
1 4.188339e+00 1.257115e+00 4.081810e+00
1 1.155990e+00 3.942281e+00 4.101277e+00
8
Atoms. Timestep: 116000
1 -2.907450e-02 6.325980e-02 -1.144531e-01
1 2.506665e+00 2.607544e+00 1.211802e-01
1 2.894784e+00 -5.818101e-02 2.638551e+00
1 3.958110e-04 2.825892e+00 2.795544e+00
1 1.240204e+00 1.260111e+00 1.414661e+00
1 4.165193e+00 3.965092e+00 1.294374e+00
1 4.009889e+00 1.451494e+00 4.083643e+00
1 1.501945e+00 4.174789e+00 4.056500e+00
8
Atoms. Timestep: 118000
1 6.405108e-03 -7.718779e-02 2.026832e-02
1 2.838784e+00 2.808971e+00 -1.031610e-01
1 2.616611e+00 2.456171e-02 2.777264e+00
1 2.648788e-02 2.664982e+00 2.724607e+00
1 1.450519e+00 1.369433e+00 1.388167e+00
1 3.977019e+00 4.156312e+00 1.364914e+00
1 4.052632e+00 1.299229e+00 4.049502e+00
1 1.321541e+00 4.043698e+00 4.068439e+00
8
Atoms. Timestep: 120000
1 -3.019607e-04 -1.002524e-02 1.014716e-02
1 2.734457e+00 2.742087e+00 -3.919697e-02
1 2.664363e+00 -7.195170e-03 2.760307e+00
1 -2.752364e-02 2.713913e+00 2.709901e+00
1 1.421354e+00 1.372909e+00 1.323843e+00
1 4.050002e+00 4.102779e+00 1.400153e+00
1 4.085924e+00 1.315025e+00 4.060979e+00
1 1.361726e+00 4.060508e+00 4.063867e+00
8
Atoms. Timestep: 122000
1 3.959523e-03 7.380234e-02 -7.405381e-02
1 2.560723e+00 2.595459e+00 1.309136e-01
1 2.901992e+00 -3.923285e-02 2.615544e+00
1 2.270320e-02 2.791137e+00 2.746368e+00
1 1.194806e+00 1.299841e+00 1.391108e+00
1 4.159443e+00 3.962781e+00 1.303211e+00
1 4.025464e+00 1.460488e+00 4.100718e+00
1 1.420908e+00 4.145725e+00 4.076191e+00
8
Atoms. Timestep: 124000
1 -5.987837e-05 -4.896320e-02 1.687941e-01
1 2.924706e+00 2.823843e+00 -1.016541e-01
1 2.478573e+00 9.177606e-02 2.776615e+00
1 -3.262192e-02 2.572182e+00 2.597477e+00
1 1.488144e+00 1.484731e+00 1.274248e+00
1 4.032597e+00 4.170535e+00 1.409241e+00
1 4.210643e+00 1.266139e+00 4.066978e+00
1 1.188019e+00 3.929757e+00 4.098300e+00
8
Atoms. Timestep: 126000
1 -1.864053e-02 2.076024e-02 -1.300659e-01
1 2.559853e+00 2.639956e+00 8.849190e-02
1 2.897944e+00 -4.761363e-02 2.640226e+00
1 4.992361e-02 2.808107e+00 2.820177e+00
1 1.236672e+00 1.241719e+00 1.473715e+00
1 4.113039e+00 3.990838e+00 1.262018e+00
1 3.962330e+00 1.454109e+00 4.077569e+00
1 1.488879e+00 4.182124e+00 4.057870e+00
8
Atoms. Timestep: 128000
1 2.898929e-02 -3.136665e-03 4.394461e-03
1 2.745151e+00 2.747797e+00 -7.588838e-02
1 2.651913e+00 -4.058010e-02 2.813581e+00
1 -5.446339e-02 2.734610e+00 2.698958e+00
1 1.467988e+00 1.393762e+00 1.261313e+00
1 4.011817e+00 4.128405e+00 1.480580e+00
1 4.076590e+00 1.266458e+00 4.053783e+00
1 1.362014e+00 4.062685e+00 4.053279e+00
8
Atoms. Timestep: 130000
1 -4.090837e-03 -4.632854e-02 3.772640e-02
1 2.806047e+00 2.767529e+00 -4.032067e-02
1 2.652789e+00 4.382625e-02 2.717506e+00
1 3.265300e-02 2.656434e+00 2.704234e+00
1 1.379600e+00 1.372589e+00 1.396166e+00
1 4.037764e+00 4.110249e+00 1.323068e+00
1 4.081692e+00 1.348536e+00 4.068225e+00
1 1.303545e+00 4.037166e+00 4.083394e+00
8
Atoms. Timestep: 132000
1 -4.540951e-02 5.759806e-02 -5.486172e-02
1 2.552973e+00 2.617653e+00 1.383972e-01
1 2.852792e+00 -4.605242e-03 2.599648e+00
1 1.359378e-02 2.767694e+00 2.757416e+00
1 1.216614e+00 1.287816e+00 1.430010e+00
1 4.196592e+00 3.960163e+00 1.246762e+00
1 4.063590e+00 1.474247e+00 4.095132e+00
1 1.439256e+00 4.129433e+00 4.077497e+00
8
Atoms. Timestep: 134000
1 8.163767e-02 6.178118e-03 1.287334e-01
1 2.891367e+00 2.765461e+00 -1.030267e-01
1 2.567316e+00 9.027235e-03 2.819429e+00
1 -5.594411e-02 2.641243e+00 2.574582e+00
1 1.467866e+00 1.509672e+00 1.162559e+00
1 3.990942e+00 4.163312e+00 1.544599e+00
1 4.161235e+00 1.229574e+00 4.075427e+00
1 1.185581e+00 3.965532e+00 4.087698e+00
8
Atoms. Timestep: 136000
1 -7.843344e-02 -2.790274e-02 -1.258315e-01
1 2.571665e+00 2.694210e+00 6.582809e-02
1 2.828998e+00 -8.736176e-03 2.640366e+00
1 5.538917e-02 2.780222e+00 2.859542e+00
1 1.287762e+00 1.209988e+00 1.551003e+00
1 4.121448e+00 4.010822e+00 1.186384e+00
1 3.977381e+00 1.458578e+00 4.060096e+00
1 1.525791e+00 4.172818e+00 4.052612e+00
8
Atoms. Timestep: 138000
1 3.566921e-02 -2.631019e-02 1.351426e-02
1 2.792159e+00 2.760063e+00 -7.706057e-02
1 2.660033e+00 -1.411652e-02 2.785586e+00
1 -7.779536e-03 2.702913e+00 2.698490e+00
1 1.431718e+00 1.390474e+00 1.310122e+00
1 3.994778e+00 4.132669e+00 1.434366e+00
1 4.059664e+00 1.289738e+00 4.059408e+00
1 1.323758e+00 4.054569e+00 4.065574e+00
8
Atoms. Timestep: 140000
1 2.195180e-02 3.741635e-02 4.371220e-02
1 2.722706e+00 2.697715e+00 4.155881e-04
1 2.685470e+00 -9.147659e-03 2.738561e+00
1 -4.761573e-02 2.711081e+00 2.656291e+00
1 1.378679e+00 1.413428e+00 1.257964e+00
1 4.087001e+00 4.074519e+00 1.435863e+00
1 4.125900e+00 1.323996e+00 4.080364e+00
1 1.315908e+00 4.040991e+00 4.076829e+00
8
Atoms. Timestep: 142000
1 -5.401807e-02 9.651075e-03 -4.980877e-02
1 2.614891e+00 2.654185e+00 1.214657e-01
1 2.841093e+00 3.437972e-02 2.574074e+00
1 7.265020e-02 2.725146e+00 2.775833e+00
1 1.196917e+00 1.269934e+00 1.515157e+00
1 4.168553e+00 3.977209e+00 1.172126e+00
1 4.038666e+00 1.498072e+00 4.093451e+00
1 1.411249e+00 4.121423e+00 4.087703e+00
8
Atoms. Timestep: 144000
1 3.971091e-02 -2.700828e-02 1.215607e-01
1 2.888863e+00 2.803997e+00 -1.246124e-01
1 2.520058e+00 2.574228e-02 2.831201e+00
1 -6.011430e-02 2.633441e+00 2.609695e+00
1 1.516377e+00 1.482844e+00 1.210344e+00
1 3.992285e+00 4.180087e+00 1.503669e+00
1 4.165688e+00 1.224503e+00 4.059478e+00
1 1.227133e+00 3.966394e+00 4.078664e+00
8
Atoms. Timestep: 146000
1 -2.722482e-03 3.292741e-02 -1.553906e-01
1 2.534533e+00 2.632320e+00 7.291023e-02
1 2.910699e+00 -8.498560e-02 2.676681e+00
1 2.559681e-02 2.844068e+00 2.828594e+00
1 1.265137e+00 1.240476e+00 1.433889e+00
1 4.094255e+00 3.998149e+00 1.317913e+00
1 3.943821e+00 1.425705e+00 4.070867e+00
1 1.518680e+00 4.201339e+00 4.044537e+00
8
Atoms. Timestep: 148000
1 -2.058762e-02 -5.690306e-02 4.389767e-02
1 2.807965e+00 2.792702e+00 -6.761789e-02
1 2.603474e+00 4.263155e-02 2.750960e+00
1 4.641086e-03 2.656704e+00 2.709285e+00
1 1.438611e+00 1.376099e+00 1.380654e+00
1 4.032512e+00 4.131200e+00 1.342440e+00
1 4.099682e+00 1.318664e+00 4.056165e+00
1 1.323702e+00 4.028903e+00 4.074215e+00
8
Atoms. Timestep: 150000
1 2.300243e-02 1.810038e-02 6.288537e-02
1 2.767916e+00 2.710390e+00 1.472819e-03
1 2.680695e+00 2.158969e-02 2.711297e+00
1 -1.090770e-02 2.675351e+00 2.648538e+00
1 1.349467e+00 1.416699e+00 1.297272e+00
1 4.079932e+00 4.077922e+00 1.392321e+00
1 4.124645e+00 1.344632e+00 4.086312e+00
1 1.275249e+00 4.025315e+00 4.089901e+00
8
Atoms. Timestep: 152000
1 -1.959963e-02 7.522286e-02 -7.726831e-02
1 2.533319e+00 2.598387e+00 1.357339e-01
1 2.886028e+00 -3.832622e-02 2.618799e+00
1 3.527143e-03 2.798693e+00 2.757789e+00
1 1.215123e+00 1.289807e+00 1.394566e+00
1 4.180250e+00 3.958274e+00 1.294363e+00
1 4.040429e+00 1.459837e+00 4.095510e+00
1 1.450923e+00 4.148105e+00 4.070507e+00
8
Atoms. Timestep: 154000
1 2.276412e-02 -8.529752e-02 1.131656e-01
1 2.943806e+00 2.854256e+00 -1.584811e-01
1 2.495396e+00 5.667081e-02 2.825253e+00
1 -9.378422e-03 2.601010e+00 2.645791e+00
1 1.526568e+00 1.453744e+00 1.300544e+00
1 3.953429e+00 4.208423e+00 1.434766e+00
1 4.132174e+00 1.234660e+00 4.048713e+00
1 1.225241e+00 3.966534e+00 4.080248e+00
8
Atoms. Timestep: 156000
1 -3.475502e-02 1.204788e-02 -1.425413e-01
1 2.543720e+00 2.656174e+00 6.974570e-02
1 2.873511e+00 -5.719399e-02 2.666833e+00
1 2.920631e-02 2.821697e+00 2.839426e+00
1 1.281408e+00 1.230383e+00 1.471930e+00
1 4.108547e+00 4.003220e+00 1.272707e+00
1 3.962587e+00 1.434449e+00 4.065692e+00
1 1.525776e+00 4.189223e+00 4.046208e+00
8
Atoms. Timestep: 158000
1 4.207044e-02 2.241097e-02 3.913545e-02
1 2.756798e+00 2.713931e+00 -2.935767e-02
1 2.680710e+00 -1.652372e-02 2.760399e+00
1 -3.563734e-02 2.708108e+00 2.657187e+00
1 1.393785e+00 1.418710e+00 1.254385e+00
1 4.047039e+00 4.097166e+00 1.457263e+00
1 4.103351e+00 1.304593e+00 4.076142e+00
1 1.301884e+00 4.041605e+00 4.074847e+00
8
Atoms. Timestep: 160000
1 -2.073491e-02 -2.215109e-02 8.565346e-02
1 2.801343e+00 2.751279e+00 -5.452528e-03
1 2.627757e+00 7.234630e-02 2.687709e+00
1 1.215179e-02 2.629937e+00 2.663884e+00
1 1.361232e+00 1.401384e+00 1.370878e+00
1 4.092597e+00 4.088447e+00 1.309847e+00
1 4.145491e+00 1.364844e+00 4.080552e+00
1 1.270163e+00 4.003915e+00 4.096930e+00
8
Atoms. Timestep: 162000
1 -2.928229e-02 4.057043e-02 -8.990141e-02
1 2.559325e+00 2.628292e+00 1.124761e-01
1 2.874276e+00 -2.655918e-02 2.621409e+00
1 3.065025e-02 2.786958e+00 2.785077e+00
1 1.227061e+00 1.268401e+00 1.446580e+00
1 4.153583e+00 3.976439e+00 1.259190e+00
1 4.014605e+00 1.462059e+00 4.086941e+00
1 1.459783e+00 4.153840e+00 4.068228e+00
8
Atoms. Timestep: 164000
1 6.981769e-02 -2.403152e-02 8.180184e-02
1 2.876546e+00 2.799843e+00 -1.511454e-01
1 2.549880e+00 -1.923566e-02 2.872013e+00
1 -6.666923e-02 2.673488e+00 2.627411e+00
1 1.537913e+00 1.474771e+00 1.182268e+00
1 3.948521e+00 4.194669e+00 1.561894e+00
1 4.119397e+00 1.194761e+00 4.051592e+00
1 1.254594e+00 3.995736e+00 4.064165e+00
8
Atoms. Timestep: 166000
1 -6.572078e-02 -2.737113e-02 -1.183383e-01
1 2.589955e+00 2.691745e+00 6.581375e-02
1 2.835421e+00 -5.343302e-03 2.634956e+00
1 6.622401e-02 2.771583e+00 2.848348e+00
1 1.273266e+00 1.219172e+00 1.547694e+00
1 4.113540e+00 4.011979e+00 1.189187e+00
1 3.974573e+00 1.460870e+00 4.064542e+00
1 1.502741e+00 4.167366e+00 4.057798e+00
8
Atoms. Timestep: 168000
1 2.156764e-02 1.111560e-02 6.161141e-02