8
Atoms. Timestep: 0
1 0.000000e+00 0.000000e+00 0.000000e+00
1 2.715000e+00 2.715000e+00 0.000000e+00
1 2.715000e+00 0.000000e+00 2.715000e+00
1 0.000000e+00 2.715000e+00 2.715000e+00
1 1.357500e+00 1.357500e+00 1.357500e+00
1 4.072500e+00 4.072500e+00 1.357500e+00
1 4.072500e+00 1.357500e+00 4.072500e+00
1 1.357500e+00 4.072500e+00 4.072500e+00
8
Atoms. Timestep: 2
1 2.294928e-03 1.739420e-03 -1.706537e-03
1 2.712981e+00 2.714963e+00 -3.596503e-03
1 2.713661e+00 -4.954095e-03 2.721836e+00
1 -5.082980e-03 2.719166e+00 2.714630e+00
1 1.364181e+00 1.359133e+00 1.349294e+00
1 4.069559e+00 4.074760e+00 1.367602e+00
1 4.071959e+00 1.351557e+00 4.071337e+00
1 1.360447e+00 4.073636e+00 4.070606e+00
8
Atoms. Timestep: 4
1 4.578457e-03 3.451116e-03 -3.390720e-03
1 2.711010e+00 2.714947e+00 -7.190180e-03
1 2.712309e+00 -9.864115e-03 2.728634e+00
1 -1.012302e-02 2.723287e+00 2.714258e+00
1 1.370831e+00 1.360761e+00 1.341148e+00
1 4.066618e+00 4.077024e+00 1.377635e+00
1 4.071421e+00 1.345643e+00 4.070178e+00
1 1.363355e+00 4.074752e+00 4.068727e+00
8
Atoms. Timestep: 6
1 6.840108e-03 5.108632e-03 -5.030878e-03
1 2.709134e+00 2.714971e+00 -1.077901e-02
1 2.710932e+00 -1.468549e-02 2.735359e+00
1 -1.507825e-02 2.727320e+00 2.713888e+00
1 1.377421e+00 1.362377e+00 1.333122e+00
1 4.063677e+00 4.079292e+00 1.387532e+00
1 4.070889e+00 1.339789e+00 4.069030e+00
1 1.366184e+00 4.075828e+00 4.066879e+00
8
Atoms. Timestep: 8
1 9.070436e-03 6.687143e-03 -6.606211e-03
1 2.707402e+00 2.715055e+00 -1.436171e-02
1 2.709519e+00 -1.937360e-02 2.741972e+00
1 -1.990839e-02 2.731222e+00 2.713520e+00
1 1.383922e+00 1.363974e+00 1.325273e+00
1 4.060734e+00 4.081569e+00 1.397227e+00
1 4.070369e+00 1.334023e+00 4.067895e+00
1 1.368893e+00 4.076843e+00 4.065080e+00
8
Atoms. Timestep: 10
1 1.126105e-02 8.163710e-03 -8.096920e-03
1 2.705855e+00 2.715218e+00 -1.793761e-02
1 2.708060e+00 -2.388427e-02 2.748437e+00
1 -2.457525e-02 2.734954e+00 2.713160e+00
1 1.390305e+00 1.365543e+00 1.317654e+00
1 4.057790e+00 4.083856e+00 1.406656e+00
1 4.069862e+00 1.328375e+00 4.066781e+00
1 1.371441e+00 4.077776e+00 4.063347e+00
8
Atoms. Timestep: 12
1 1.340457e-02 9.517465e-03 -9.484309e-03
1 2.704538e+00 2.715477e+00 -2.150644e-02
1 2.706549e+00 -2.817431e-02 2.754718e+00
1 -2.904305e-02 2.738479e+00 2.712811e+00
1 1.396543e+00 1.367071e+00 1.310316e+00
1 4.054845e+00 4.086155e+00 1.415760e+00
1 4.069375e+00 1.322871e+00 4.065689e+00
1 1.373788e+00 4.078604e+00 4.061696e+00
8
Atoms. Timestep: 14
1 1.549460e-02 1.072976e-02 -1.075086e-02
1 2.703489e+00 2.715847e+00 -2.506812e-02
1 2.704979e+00 -3.220198e-02 2.760782e+00
1 -3.327887e-02 2.741762e+00 2.712480e+00
1 1.402610e+00 1.368549e+00 1.303304e+00
1 4.051901e+00 4.088467e+00 1.424480e+00
1 4.068911e+00 1.317540e+00 4.064626e+00
1 1.375895e+00 4.079307e+00 4.060146e+00
8
Atoms. Timestep: 16
1 1.752555e-02 1.178425e-02 -1.188031e-02
1 2.702743e+00 2.716344e+00 -2.862252e-02
1 2.703345e+00 -3.592749e-02 2.766595e+00
1 -3.725284e-02 2.744771e+00 2.712173e+00
1 1.408481e+00 1.369965e+00 1.296660e+00
1 4.048958e+00 4.090794e+00 1.432766e+00
1 4.068476e+00 1.312405e+00 4.063596e+00
1 1.377724e+00 4.079864e+00 4.058714e+00
8
Atoms. Timestep: 18
1 1.949261e-02 1.266692e-02 -1.285762e-02
1 2.702335e+00 2.716979e+00 -3.216923e-02
1 2.701643e+00 -3.931344e-02 2.772127e+00
1 -4.093842e-02 2.747478e+00 2.711893e+00
1 1.414134e+00 1.371309e+00 1.290422e+00
1 4.046021e+00 4.093134e+00 1.440567e+00
1 4.068076e+00 1.307493e+00 4.062602e+00
1 1.379238e+00 4.080253e+00 4.057415e+00
8
Atoms. Timestep: 20
1 2.139149e-02 1.336608e-02 -1.366906e-02
1 2.702292e+00 2.717762e+00 -3.570730e-02
1 2.699870e+00 -4.232522e-02 2.777349e+00
1 -4.431249e-02 2.749858e+00 2.711648e+00
1 1.419548e+00 1.372569e+00 1.284622e+00
1 4.043091e+00 4.095488e+00 1.447842e+00
1 4.067716e+00 1.302824e+00 4.061650e+00
1 1.380405e+00 4.080457e+00 4.056266e+00
8
Atoms. Timestep: 22
1 2.321836e-02 1.387230e-02 -1.430215e-02
1 2.702640e+00 2.718702e+00 -3.923503e-02
1 2.698024e+00 -4.493144e-02 2.782236e+00
1 -4.735549e-02 2.751889e+00 2.711440e+00
1 1.424705e+00 1.373738e+00 1.279288e+00
1 4.040174e+00 4.097854e+00 1.454551e+00
1 4.067403e+00 1.298420e+00 4.060742e+00
1 1.381192e+00 4.080456e+00 4.055280e+00
8
Atoms. Timestep: 24
1 2.496961e-02 1.417835e-02 -1.474564e-02
1 2.703399e+00 2.719805e+00 -4.274976e-02
1 2.696101e+00 -4.710418e-02 2.786763e+00
1 -5.005141e-02 2.753550e+00 2.711273e+00
1 1.429588e+00 1.374807e+00 1.274443e+00
1 4.037275e+00 4.100229e+00 1.460661e+00
1 4.067145e+00 1.294299e+00 4.059884e+00
1 1.381573e+00 4.080236e+00 4.054470e+00
8
Atoms. Timestep: 26
1 2.664171e-02 1.427906e-02 -1.498946e-02
1 2.704588e+00 2.721075e+00 -4.624769e-02
1 2.694099e+00 -4.881937e-02 2.790911e+00
1 -5.238780e-02 2.754827e+00 2.711148e+00
1 1.434185e+00 1.375770e+00 1.270107e+00
1 4.034401e+00 4.102609e+00 1.466143e+00
1 4.066948e+00 1.290477e+00 4.059080e+00
1 1.381524e+00 4.079783e+00 4.053848e+00
8
Atoms. Timestep: 28
1 2.823107e-02 1.417123e-02 -1.502472e-02
1 2.706219e+00 2.722513e+00 -4.972378e-02
1 2.692015e+00 -5.005698e-02 2.794662e+00
1 -5.435569e-02 2.755707e+00 2.711066e+00
1 1.438483e+00 1.376623e+00 1.266293e+00
1 4.031561e+00 4.104989e+00 1.470974e+00
1 4.066821e+00 1.286969e+00 4.058333e+00
1 1.381026e+00 4.079085e+00 4.053420e+00
8
Atoms. Timestep: 30
1 2.973391e-02 1.385347e-02 -1.484361e-02
1 2.708302e+00 2.724120e+00 -5.317162e-02
1 2.689845e+00 -5.080127e-02 2.798004e+00
1 -5.594947e-02 2.756179e+00 2.711023e+00
1 1.442473e+00 1.377364e+00 1.263013e+00
1 4.028762e+00 4.107365e+00 1.475134e+00
1 4.066771e+00 1.283787e+00 4.057648e+00
1 1.380063e+00 4.078133e+00 4.053194e+00
8
Atoms. Timestep: 32
1 3.114614e-02 1.332611e-02 -1.443938e-02
1 2.710840e+00 2.725893e+00 -5.658340e-02
1 2.687584e+00 -5.104093e-02 2.800924e+00
1 -5.716684e-02 2.756237e+00 2.711016e+00
1 1.446150e+00 1.377992e+00 1.260271e+00
1 4.026014e+00 4.109729e+00 1.478610e+00
1 4.066807e+00 1.280942e+00 4.057028e+00
1 1.378625e+00 4.076921e+00 4.053174e+00
8
Atoms. Timestep: 34
1 3.246330e-02 1.259107e-02 -1.380627e-02
1 2.713837e+00 2.727829e+00 -5.994996e-02
1 2.685226e+00 -5.076921e-02 2.803418e+00
1 -5.800859e-02 2.755875e+00 2.711039e+00
1 1.449510e+00 1.378511e+00 1.258072e+00
1 4.023328e+00 4.112075e+00 1.481391e+00
1 4.066937e+00 1.278439e+00 4.056477e+00
1 1.376708e+00 4.075448e+00 4.053360e+00
8
Atoms. Timestep: 36
1 3.368052e-02 1.165174e-02 -1.293951e-02
1 2.717289e+00 2.729923e+00 -6.326081e-02
1 2.682764e+00 -4.998404e-02 2.805480e+00
1 -5.847851e-02 2.755094e+00 2.711084e+00
1 1.452550e+00 1.378924e+00 1.256412e+00
1 4.020715e+00 4.114395e+00 1.483474e+00
1 4.067170e+00 1.276285e+00 4.055999e+00
1 1.374310e+00 4.073712e+00 4.053752e+00
8
Atoms. Timestep: 38
1 3.479252e-02 1.051292e-02 -1.183525e-02
1 2.721190e+00 2.732166e+00 -6.650428e-02
1 2.680191e+00 -4.868800e-02 2.807111e+00
1 -5.858321e-02 2.753892e+00 2.711141e+00
1 1.455271e+00 1.379239e+00 1.255289e+00
1 4.018187e+00 4.116679e+00 1.484858e+00
1 4.067515e+00 1.274482e+00 4.055596e+00
1 1.371437e+00 4.071717e+00 4.054345e+00
8
Atoms. Timestep: 40
1 3.579365e-02 9.180727e-03 -1.049055e-02
1 2.725530e+00 2.734551e+00 -6.966767e-02
1 2.677498e+00 -4.688838e-02 2.808314e+00
1 -5.833195e-02 2.752274e+00 2.711197e+00
1 1.457677e+00 1.379465e+00 1.254694e+00
1 4.015756e+00 4.118921e+00 1.485547e+00
1 4.067979e+00 1.273029e+00 4.055272e+00
1 1.368098e+00 4.069468e+00 4.055134e+00
8
Atoms. Timestep: 42
1 3.667795e-02 7.662563e-03 -8.903395e-03
1 2.730296e+00 2.737068e+00 -7.273748e-02
1 2.674676e+00 -4.459713e-02 2.809097e+00
1 -5.773650e-02 2.750245e+00 2.711240e+00
1 1.459771e+00 1.379612e+00 1.254614e+00
1 4.013433e+00 4.121110e+00 1.485550e+00
1 4.068572e+00 1.271924e+00 4.055030e+00
1 1.364310e+00 4.066975e+00 4.056109e+00
8
Atoms. Timestep: 44
1 3.743929e-02 5.967073e-03 -7.072700e-03
1 2.735471e+00 2.739707e+00 -7.569964e-02
1 2.671717e+00 -4.183072e-02 2.809470e+00
1 -5.681097e-02 2.747811e+00 2.711253e+00
1 1.461561e+00 1.379696e+00 1.255036e+00
1 4.011231e+00 4.123239e+00 1.484879e+00
1 4.069301e+00 1.271162e+00 4.054872e+00
1 1.360091e+00 4.064249e+00 4.057262e+00
8
Atoms. Timestep: 46
1 3.807147e-02 4.104131e-03 -4.998309e-03
1 2.741034e+00 2.742456e+00 -7.853984e-02
1 2.668611e+00 -3.861009e-02 2.809446e+00
1 -5.557165e-02 2.744984e+00 2.711219e+00
1 1.463055e+00 1.379730e+00 1.255941e+00
1 4.009162e+00 4.125299e+00 1.483553e+00
1 4.070173e+00 1.270734e+00 4.054799e+00
1 1.355466e+00 4.061304e+00 4.058579e+00
8
Atoms. Timestep: 48
1 3.856847e-02 2.084830e-03 -2.681057e-03
1 2.746961e+00 2.745302e+00 -8.124380e-02
1 2.665352e+00 -3.496040e-02 2.809042e+00
1 -5.403684e-02 2.741774e+00 2.711121e+00
1 1.464260e+00 1.379732e+00 1.257308e+00
1 4.007237e+00 4.127281e+00 1.481594e+00
1 4.071195e+00 1.270631e+00 4.054812e+00
1 1.350464e+00 4.058157e+00 4.060048e+00
8
Atoms. Timestep: 50
1 3.892460e-02 -7.851260e-05 -1.228116e-04
1 2.753225e+00 2.748233e+00 -8.379764e-02
1 2.661933e+00 -3.091087e-02 2.808278e+00
1 -5.222666e-02 2.738194e+00 2.710937e+00
1 1.465189e+00 1.379721e+00 1.259111e+00
1 4.005467e+00 4.129179e+00 1.479027e+00
1 4.072372e+00 1.270839e+00 4.054913e+00
1 1.345116e+00 4.054824e+00 4.061654e+00
8
Atoms. Timestep: 52
1 3.913472e-02 -2.372360e-03 2.673464e-03
1 2.759796e+00 2.751234e+00 -8.618821e-02
1 2.658348e+00 -2.649448e-02 2.807175e+00
1 -5.016291e-02 2.734261e+00 2.710649e+00
1 1.465851e+00 1.379717e+00 1.261324e+00
1 4.003863e+00 4.130985e+00 1.475884e+00
1 4.073710e+00 1.271343e+00 4.055101e+00
1 1.339460e+00 4.051326e+00 4.063381e+00
8
Atoms. Timestep: 54
1 3.919453e-02 -4.781955e-03 5.703640e-03
1 2.766641e+00 2.754293e+00 -8.840343e-02
1 2.654597e+00 -2.174764e-02 2.805759e+00
1 -4.786886e-02 2.729991e+00 2.710236e+00
1 1.466258e+00 1.379741e+00 1.263914e+00
1 4.002432e+00 4.132696e+00 1.472201e+00
1 4.075212e+00 1.272125e+00 4.055375e+00
1 1.333533e+00 4.047683e+00 4.065215e+00
8
Atoms. Timestep: 56
1 3.910074e-02 -7.291327e-03 8.962343e-03
1 2.773724e+00 2.757395e+00 -9.043264e-02
1 2.650680e+00 -1.670989e-02 2.804057e+00
1 -4.536905e-02 2.725403e+00 2.709677e+00
1 1.466423e+00 1.379817e+00 1.266847e+00
1 4.001184e+00 4.134306e+00 1.468016e+00
1 4.076881e+00 1.273164e+00 4.055734e+00
1 1.327377e+00 4.043917e+00 4.067140e+00
8
Atoms. Timestep: 58
1 3.885139e-02 -9.883322e-03 1.244288e-02
1 2.781007e+00 2.760525e+00 -9.226687e-02
1 2.646599e+00 -1.142345e-02 2.802098e+00
1 -4.268910e-02 2.720518e+00 2.708951e+00
1 1.466356e+00 1.379965e+00 1.270085e+00
1 4.000125e+00 4.135812e+00 1.463374e+00
1 4.078718e+00 1.274439e+00 4.056175e+00
1 1.321033e+00 4.040049e+00 4.069140e+00
8
Atoms. Timestep: 60
1 3.844598e-02 -1.253964e-02 1.613716e-02
1 2.788449e+00 2.763669e+00 -9.389918e-02
1 2.642363e+00 -5.932791e-03 2.799913e+00
1 -3.985550e-02 2.715357e+00 2.708040e+00
1 1.466071e+00 1.380209e+00 1.273589e+00
1 3.999259e+00 4.137212e+00 1.458322e+00
1 4.080723e+00 1.275924e+00 4.056696e+00
1 1.314545e+00 4.036101e+00 4.071202e+00
8
Atoms. Timestep: 62
1 3.788577e-02 -1.524089e-02 2.003562e-02
1 2.796007e+00 2.766812e+00 -9.532482e-02
1 2.637980e+00 -2.841639e-04 2.797535e+00
1 -3.689540e-02 2.709946e+00 2.706924e+00
1 1.465578e+00 1.380572e+00 1.277314e+00
1 3.998592e+00 4.138506e+00 1.452913e+00
1 4.082895e+00 1.277594e+00 4.057292e+00
1 1.307958e+00 4.032094e+00 4.073311e+00
8
Atoms. Timestep: 64
1 3.717388e-02 -1.796670e-02 2.412719e-02
1 2.803637e+00 2.769939e+00 -9.654150e-02
1 2.633466e+00 5.474913e-03 2.794999e+00
1 -3.383639e-02 2.704309e+00 2.705586e+00
1 1.464890e+00 1.381076e+00 1.281216e+00
1 3.998124e+00 4.139695e+00 1.447200e+00
1 4.085231e+00 1.279422e+00 4.057960e+00
1 1.301315e+00 4.028050e+00 4.075453e+00
8
Atoms. Timestep: 66
1 3.631548e-02 -2.069578e-02 2.839923e-02
1 2.811295e+00 2.773037e+00 -9.754947e-02
1 2.628835e+00 1.129619e-02 2.792338e+00
1 -3.070629e-02 2.698474e+00 2.704012e+00
1 1.464018e+00 1.381742e+00 1.285246e+00
1 3.997855e+00 4.140780e+00 1.441243e+00
1 4.087728e+00 1.281379e+00 4.058694e+00
1 1.294660e+00 4.023989e+00 4.077618e+00
8
Atoms. Timestep: 68
1 3.531787e-02 -2.340609e-02 3.283750e-02
1 2.818934e+00 2.776090e+00 -9.835158e-02
1 2.624110e+00 1.713124e-02 2.789589e+00
1 -2.753300e-02 2.692468e+00 2.702187e+00
1 1.462973e+00 1.382589e+00 1.289356e+00
1 3.997785e+00 4.141764e+00 1.435101e+00
1 4.090379e+00 1.283436e+00 4.059488e+00
1 1.288034e+00 4.019929e+00 4.079793e+00
8
Atoms. Timestep: 70
1 3.419051e-02 -2.607501e-02 3.742621e-02
1 2.826509e+00 2.779084e+00 -9.895334e-02
1 2.619311e+00 2.293201e-02 2.786788e+00
1 -2.434425e-02 2.686322e+00 2.700102e+00
1 1.461767e+00 1.383635e+00 1.293494e+00
1 3.997911e+00 4.142650e+00 1.428836e+00
1 4.093177e+00 1.285562e+00 4.060337e+00
1 1.281479e+00 4.015889e+00 4.081970e+00
8
Atoms. Timestep: 72
1 3.294506e-02 -2.867946e-02 4.214800e-02
1 2.833973e+00 2.782006e+00 -9.936280e-02
1 2.614465e+00 2.865137e-02 2.783971e+00
1 -2.116750e-02 2.680066e+00 2.697750e+00
1 1.460410e+00 1.384897e+00 1.297609e+00
1 3.998226e+00 4.143444e+00 1.422513e+00
1 4.096116e+00 1.287729e+00 4.061234e+00
1 1.275032e+00 4.011886e+00 4.084138e+00
8
Atoms. Timestep: 74
1 3.159530e-02 -3.119613e-02 4.698402e-02
1 2.841281e+00 2.784842e+00 -9.959047e-02
1 2.609598e+00 3.424366e-02 2.781172e+00
1 -1.802979e-02 2.673734e+00 2.695126e+00
1 1.458915e+00 1.386388e+00 1.301651e+00
1 3.998725e+00 4.144150e+00 1.416194e+00
1 4.099185e+00 1.289905e+00 4.062173e+00
1 1.268730e+00 4.007934e+00 4.086290e+00
8
Atoms. Timestep: 76
1 3.015706e-02 -3.360170e-02 5.191404e-02
1 2.848390e+00 2.787579e+00 -9.964911e-02
1 2.604738e+00 3.966518e-02 2.778428e+00
1 -1.495762e-02 2.667357e+00 2.692229e+00
1 1.457293e+00 1.388118e+00 1.305568e+00
1 3.999398e+00 4.144773e+00 1.409945e+00
1 4.102374e+00 1.292062e+00 4.063146e+00
1 1.262606e+00 4.004047e+00 4.088419e+00
8
Atoms. Timestep: 78
1 2.864801e-02 -3.587303e-02 5.691654e-02
1 2.855257e+00 2.790204e+00 -9.955350e-02
1 2.599914e+00 4.487469e-02 2.775770e+00
1 -1.197689e-02 2.660971e+00 2.689063e+00
1 1.455558e+00 1.390095e+00 1.309309e+00
1 4.000237e+00 4.145319e+00 1.403829e+00
1 4.105673e+00 1.294172e+00 4.064147e+00
1 1.256690e+00 4.000238e+00 4.090519e+00
8
Atoms. Timestep: 80
1 2.708754e-02 -3.798743e-02 6.196889e-02
1 2.861842e+00 2.792706e+00 -9.932014e-02
1 2.595155e+00 4.983379e-02 2.773233e+00
1 -9.112841e-03 2.654609e+00 2.685633e+00
1 1.453723e+00 1.392323e+00 1.312826e+00
1 4.001229e+00 4.145793e+00 1.397908e+00
1 4.109068e+00 1.296206e+00 4.065168e+00
1 1.251008e+00 3.996517e+00 4.092583e+00
8
Atoms. Timestep: 82
1 2.549647e-02 -3.992284e-02 6.704751e-02
1 2.868106e+00 2.795073e+00 -9.896693e-02
1 2.590489e+00 5.450730e-02 2.770846e+00
1 -6.390040e-03 2.648308e+00 2.681950e+00
1 1.451802e+00 1.394803e+00 1.316072e+00
1 4.002362e+00 4.146200e+00 1.392242e+00
1 4.112547e+00 1.298140e+00 4.066203e+00
1 1.245587e+00 3.992893e+00 4.094607e+00
8
Atoms. Timestep: 84
1 2.389677e-02 -4.165812e-02 7.212808e-02
1 2.874015e+00 2.797294e+00 -9.851284e-02
1 2.585944e+00 5.886359e-02 2.768637e+00
1 -3.832341e-03 2.642103e+00 2.678028e+00
1 1.449814e+00 1.397531e+00 1.319000e+00
1 4.003622e+00 4.146544e+00 1.386889e+00
1 4.116097e+00 1.299948e+00 4.067246e+00
1 1.240445e+00 3.989374e+00 4.096586e+00
8
Atoms. Timestep: 86
1 2.231132e-02 -4.317325e-02 7.718581e-02
1 2.879535e+00 2.799360e+00 -9.797748e-02
1 2.581544e+00 6.287474e-02 2.766632e+00
1 -1.462897e-03 2.636032e+00 2.673884e+00
1 1.447776e+00 1.400502e+00 1.321570e+00
1 4.004993e+00 4.146830e+00 1.381903e+00
1 4.119704e+00 1.301608e+00 4.068288e+00
1 1.235600e+00 3.985968e+00 4.098515e+00
8
Atoms. Timestep: 88
1 2.076350e-02 -4.444960e-02 8.219562e-02
1 2.884637e+00 2.801261e+00 -9.738076e-02
1 2.577315e+00 6.651676e-02 2.764854e+00
1 6.958416e-04 2.630129e+00 2.669538e+00
1 1.445708e+00 1.403705e+00 1.323741e+00
1 4.006461e+00 4.147060e+00 1.377337e+00
1 4.123352e+00 1.303100e+00 4.069325e+00
1 1.231068e+00 3.982679e+00 4.100390e+00
8
Atoms. Timestep: 90
1 1.927690e-02 -4.547012e-02 8.713245e-02
1 2.889295e+00 2.802989e+00 -9.674251e-02
1 2.573277e+00 6.976965e-02 2.763324e+00
1 2.622150e-03 2.624431e+00 2.665014e+00
1 1.443633e+00 1.407127e+00 1.325478e+00
1 4.008008e+00 4.147237e+00 1.373238e+00
1 4.127029e+00 1.304405e+00 4.070350e+00
1 1.226859e+00 3.979512e+00 4.102207e+00
8
Atoms. Timestep: 92
1 1.787497e-02 -4.621960e-02 9.197154e-02
1 2.893487e+00 2.804536e+00 -9.608210e-02
1 2.569449e+00 7.261743e-02 2.762060e+00
1 4.295059e-03 2.618974e+00 2.660337e+00
1 1.441575e+00 1.410751e+00 1.326746e+00
1 4.009618e+00 4.147364e+00 1.369648e+00
1 4.130718e+00 1.305506e+00 4.071358e+00
1 1.222982e+00 3.976471e+00 4.103962e+00
8
Atoms. Timestep: 94
1 1.658064e-02 -4.668486e-02 9.668866e-02
1 2.897193e+00 2.805897e+00 -9.541810e-02
1 2.565849e+00 7.504813e-02 2.761075e+00
1 5.694424e-03 2.613793e+00 2.655537e+00
1 1.439560e+00 1.414559e+00 1.327519e+00
1 4.011273e+00 4.147439e+00 1.366607e+00
1 4.134405e+00 1.306389e+00 4.072342e+00
1 1.219443e+00 3.973560e+00 4.105650e+00
8
Atoms. Timestep: 96
1 1.541597e-02 -4.685501e-02 1.012604e-01
1 2.900398e+00 2.807066e+00 -9.476800e-02
1 2.562490e+00 7.705363e-02 2.760380e+00
1 6.801036e-03 2.608922e+00 2.650643e+00
1 1.437615e+00 1.418527e+00 1.327770e+00
1 4.012957e+00 4.147464e+00 1.364149e+00
1 4.138076e+00 1.307042e+00 4.073299e+00
1 1.216246e+00 3.970780e+00 4.107267e+00
8
Atoms. Timestep: 98
1 1.440185e-02 -4.672160e-02 1.056645e-01
1 2.903090e+00 2.808038e+00 -9.414789e-02
1 2.559382e+00 7.862963e-02 2.759984e+00
1 7.596774e-03 2.604394e+00 2.645687e+00
1 1.435770e+00 1.422633e+00 1.327478e+00
1 4.014653e+00 4.147438e+00 1.362303e+00
1 4.141714e+00 1.307455e+00 4.074223e+00
1 1.213391e+00 3.968134e+00 4.108808e+00
8
Atoms. Timestep: 100
1 1.355763e-02 -4.627886e-02 1.098801e-01
1 2.905261e+00 2.808810e+00 -9.357229e-02
1 2.556535e+00 7.977539e-02 2.759891e+00
1 8.064816e-03 2.600240e+00 2.640699e+00
1 1.434055e+00 1.426849e+00 1.326628e+00
1 4.016344e+00 4.147359e+00 1.361094e+00
1 4.145305e+00 1.307621e+00 4.075110e+00
1 1.210878e+00 3.965623e+00 4.110270e+00
8
Atoms. Timestep: 102
1 1.290082e-02 -4.552386e-02 1.138878e-01
1 2.906906e+00 2.809380e+00 -9.305391e-02
1 2.553952e+00 8.049355e-02 2.760103e+00
1 8.189902e-03 2.596490e+00 2.635713e+00
1 1.432501e+00 1.431150e+00 1.325207e+00
1 4.018013e+00 4.147227e+00 1.360539e+00
1 4.148834e+00 1.307534e+00 4.075956e+00
1 1.208703e+00 3.963249e+00 4.111648e+00
8
Atoms. Timestep: 104
1 1.244687e-02 -4.445668e-02 1.176701e-01
1 2.908025e+00 2.809747e+00 -9.260359e-02
1 2.551638e+00 8.078998e-02 2.760618e+00
1 7.958650e-03 2.593171e+00 2.630759e+00
1 1.431138e+00 1.435507e+00 1.323209e+00
1 4.019646e+00 4.147039e+00 1.360654e+00
1 4.152287e+00 1.307191e+00 4.076757e+00
1 1.206861e+00 3.961013e+00 4.112936e+00
8
Atoms. Timestep: 106
1 1.220885e-02 -4.308055e-02 1.212115e-01
1 2.908621e+00 2.809911e+00 -9.223020e-02
1 2.549594e+00 8.067348e-02 2.761431e+00
1 7.359917e-03 2.590305e+00 2.625868e+00
1 1.429997e+00 1.439892e+00 1.320631e+00
1 4.021227e+00 4.146792e+00 1.361447e+00
1 4.155648e+00 1.306590e+00 4.077509e+00
1 1.205344e+00 3.958917e+00 4.114132e+00
8
Atoms. Timestep: 108
1 1.219729e-02 -4.140197e-02 1.244989e-01
1 2.908701e+00 2.809874e+00 -9.194060e-02
1 2.547817e+00 8.015558e-02 2.762534e+00
1 6.385199e-03 2.587915e+00 2.621070e+00
1 1.429107e+00 1.444277e+00 1.317477e+00
1 4.022744e+00 4.146487e+00 1.362920e+00
1 4.158903e+00 1.305732e+00 4.078209e+00
1 1.204146e+00 3.956962e+00 4.115230e+00
8
Atoms. Timestep: 110
1 1.242002e-02 -3.943081e-02 1.275212e-01
1 2.908276e+00 2.809639e+00 -9.173975e-02
1 2.546305e+00 7.925034e-02 2.763919e+00
1 5.029055e-03 2.586017e+00 2.616392e+00
1 1.428495e+00 1.448636e+00 1.313756e+00
1 4.024182e+00 4.146120e+00 1.365072e+00
1 4.162038e+00 1.304621e+00 4.078854e+00
1 1.203254e+00 3.955148e+00 4.116227e+00
8
Atoms. Timestep: 112
1 1.288198e-02 -3.718033e-02 1.302701e-01
1 2.907362e+00 2.809210e+00 -9.163077e-02
1 2.545052e+00 7.797409e-02 2.765571e+00
1 3.289532e-03 2.584624e+00 2.611859e+00
1 1.428186e+00 1.452943e+00 1.309482e+00
1 4.025531e+00 4.145691e+00 1.367893e+00
1 4.165039e+00 1.303261e+00 4.079439e+00
1 1.202658e+00 3.953478e+00 4.117117e+00
8
Atoms. Timestep: 114
1 1.358525e-02 -3.466721e-02 1.327395e-01
1 2.905976e+00 2.808593e+00 -9.161507e-02
1 2.544053e+00 7.634529e-02 2.767476e+00
1 1.168584e-03 2.583744e+00 2.607494e+00
1 1.428202e+00 1.457172e+00 1.304675e+00
1 4.026779e+00 4.145201e+00 1.371372e+00
1 4.167892e+00 1.301659e+00 4.079963e+00
1 1.202343e+00 3.951953e+00 4.117896e+00
8
Atoms. Timestep: 116
1 1.452891e-02 -3.191147e-02 1.349260e-01
1 2.904143e+00 2.807796e+00 -9.169261e-02
1 2.543300e+00 7.438424e-02 2.769617e+00
1 -1.327545e-03 2.583382e+00 2.603317e+00
1 1.428561e+00 1.461302e+00 1.299361e+00
1 4.027916e+00 4.144651e+00 1.375487e+00
1 4.170583e+00 1.299823e+00 4.080422e+00
1 1.202296e+00 3.950573e+00 4.118562e+00
8
Atoms. Timestep: 118
1 1.570915e-02 -2.893641e-02 1.368287e-01
1 2.901890e+00 2.806828e+00 -9.186209e-02
1 2.542782e+00 7.211297e-02 2.771976e+00
1 -4.187999e-03 2.583535e+00 2.599344e+00
1 1.429275e+00 1.465312e+00 1.293575e+00
1 4.028933e+00 4.144043e+00 1.380215e+00
1 4.173100e+00 1.297764e+00 4.080813e+00
1 1.202499e+00 3.949342e+00 4.119111e+00
8
Atoms. Timestep: 120
1 1.711928e-02 -2.576838e-02 1.384492e-01
1 2.899246e+00 2.805700e+00 -9.212124e-02
1 2.542492e+00 6.955504e-02 2.774531e+00
1 -7.397056e-03 2.584196e+00 2.595591e+00
1 1.430354e+00 1.469182e+00 1.287353e+00
1 4.029821e+00 4.143382e+00 1.385526e+00
1 4.175429e+00 1.295494e+00 4.081133e+00
1 1.202937e+00 3.948259e+00 4.119538e+00
8
Atoms. Timestep: 122
1 1.874992e-02 -2.243660e-02 1.397913e-01
1 2.896248e+00 2.804426e+00 -9.246712e-02
1 2.542417e+00 6.673533e-02 2.777263e+00
1 -1.093399e-02 2.585353e+00 2.592070e+00
1 1.431801e+00 1.472896e+00 1.280740e+00
1 4.030571e+00 4.142674e+00 1.391383e+00
1 4.177559e+00 1.293027e+00 4.081380e+00
1 1.203589e+00 3.947326e+00 4.119841e+00
8
Atoms. Timestep: 124
1 2.058912e-02 -1.897281e-02 1.408613e-01
1 2.892933e+00 2.803020e+00 -9.289644e-02
1 2.542547e+00 6.367989e-02 2.780147e+00
1 -1.477301e-02 2.586987e+00 2.588789e+00
1 1.433614e+00 1.476440e+00 1.273787e+00
1 4.031176e+00 4.141926e+00 1.397745e+00
1 4.179477e+00 1.290376e+00 4.081549e+00
1 1.204438e+00 3.946544e+00 4.120018e+00
8
Atoms. Timestep: 126
1 2.262260e-02 -1.541095e-02 1.416673e-01
1 2.889344e+00 2.801499e+00 -9.340585e-02
1 2.542868e+00 6.041577e-02 2.783162e+00
1 -1.888339e-02 2.589074e+00 2.585756e+00
1 1.435786e+00 1.479799e+00 1.266549e+00
1 4.031628e+00 4.141149e+00 1.404567e+00
1 4.181172e+00 1.287559e+00 4.081639e+00
1 1.205462e+00 3.945915e+00 4.120066e+00
8
Atoms. Timestep: 128
1 2.483401e-02 -1.178671e-02 1.422194e-01
1 2.885525e+00 2.799882e+00 -9.399226e-02
1 2.543369e+00 5.697083e-02 2.786284e+00
1 -2.322966e-02 2.591585e+00 2.582976e+00
1 1.438305e+00 1.482963e+00 1.259087e+00
1 4.031919e+00 4.140354e+00 1.411798e+00
1 4.182636e+00 1.284593e+00 4.081646e+00
1 1.206641e+00 3.945439e+00 4.119982e+00
8
Atoms. Timestep: 130
1 2.720526e-02 -8.137048e-03 1.425293e-01
1 2.881526e+00 2.798188e+00 -9.465308e-02
1 2.544037e+00 5.337356e-02 2.789489e+00
1 -2.777203e-02 2.594487e+00 2.580452e+00
1 1.441152e+00 1.485922e+00 1.251465e+00
1 4.032043e+00 4.139555e+00 1.419384e+00
1 4.183857e+00 1.281496e+00 4.081567e+00
1 1.207952e+00 3.945116e+00 4.119767e+00
8
Atoms. Timestep: 132
1 2.971678e-02 -4.499688e-03 1.426100e-01
1 2.877396e+00 2.796441e+00 -9.538651e-02
1 2.544857e+00 4.965289e-02 2.792755e+00
1 -3.246680e-02 2.597739e+00 2.578187e+00
1 1.444304e+00 1.488666e+00 1.243751e+00
1 4.031990e+00 4.138768e+00 1.427266e+00
1 4.184828e+00 1.278287e+00 4.081399e+00
1 1.209374e+00 3.944947e+00 4.119419e+00
8
Atoms. Timestep: 134
1 3.234790e-02 -9.125601e-04 1.424756e-01
1 2.873187e+00 2.794663e+00 -9.619165e-02
1 2.545817e+00 4.583800e-02 2.796059e+00
1 -3.726707e-02 2.601298e+00 2.576183e+00
1 1.447734e+00 1.491186e+00 1.236015e+00
1 4.031754e+00 4.138011e+00 1.435382e+00
1 4.185542e+00 1.274985e+00 4.081140e+00
1 1.210884e+00 3.944931e+00 4.118937e+00
8
Atoms. Timestep: 136
1 3.507719e-02 2.586755e-03 1.421410e-01
1 2.868953e+00 2.792878e+00 -9.706867e-02
1 2.546903e+00 4.195815e-02 2.799379e+00
1 -4.212343e-02 2.605120e+00 2.574440e+00
1 1.451410e+00 1.493476e+00 1.228330e+00
1 4.031327e+00 4.137302e+00 1.443670e+00
1 4.185993e+00 1.271612e+00 4.080786e+00
1 1.212461e+00 3.945067e+00 4.118321e+00
8
Atoms. Timestep: 138
1 3.788277e-02 5.961578e-03 1.416218e-01
1 2.864747e+00 2.791113e+00 -9.801882e-02
1 2.548100e+00 3.804245e-02 2.802694e+00
1 -4.698475e-02 2.609154e+00 2.572960e+00
1 1.455296e+00 1.495528e+00 1.220769e+00
1 4.030701e+00 4.136661e+00 1.452064e+00
1 4.186176e+00 1.268187e+00 4.080337e+00
1 1.214082e+00 3.945354e+00 4.117574e+00
8
Atoms. Timestep: 140
1 4.074264e-02 9.176669e-03 1.409336e-01
1 2.860623e+00 2.789392e+00 -9.904446e-02
1 2.549394e+00 3.411976e-02 2.805983e+00
1 -5.179908e-02 2.613349e+00 2.571742e+00
1 1.459356e+00 1.497333e+00 1.213402e+00
1 4.029870e+00 4.136108e+00 1.460498e+00
1 4.186088e+00 1.264730e+00 4.079790e+00
1 1.215725e+00 3.945791e+00 4.116695e+00
8
Atoms. Timestep: 142
1 4.363498e-02 1.219872e-02 1.400922e-01
1 2.856633e+00 2.787743e+00 -1.001489e-01
1 2.550773e+00 3.021844e-02 2.809229e+00
1 -5.651453e-02 2.617655e+00 2.570788e+00
1 1.463550e+00 1.498886e+00 1.206302e+00
1 4.028826e+00 4.135664e+00 1.468907e+00
1 4.185729e+00 1.261261e+00 4.079143e+00
1 1.217370e+00 3.946374e+00 4.115688e+00
8
Atoms. Timestep: 144
1 4.653838e-02 1.499680e-02 1.391131e-01
1 2.852827e+00 2.786190e+00 -1.013363e-01
1 2.552220e+00 2.636625e-02 2.812414e+00
1 -6.108016e-02 2.622019e+00 2.570097e+00
1 1.467837e+00 1.500178e+00 1.199534e+00
1 4.027564e+00 4.135350e+00 1.477226e+00
1 4.185097e+00 1.257800e+00 4.078396e+00
1 1.218995e+00 3.947101e+00 4.114556e+00
8
Atoms. Timestep: 146
1 4.943205e-02 1.754273e-02 1.380113e-01
1 2.849255e+00 2.784758e+00 -1.026113e-01
1 2.553723e+00 2.259020e-02 2.815521e+00
1 -6.544683e-02 2.626389e+00 2.569672e+00
1 1.472178e+00 1.501203e+00 1.193165e+00
1 4.026080e+00 4.135185e+00 1.485391e+00
1 4.184196e+00 1.254365e+00 4.077549e+00
1 1.220583e+00 3.947967e+00 4.113303e+00
8
Atoms. Timestep: 148
1 5.229598e-02 1.981140e-02 1.368014e-01
1 2.845960e+00 2.783472e+00 -1.039789e-01
1 2.555266e+00 1.891646e-02 2.818536e+00
1 -6.956800e-02 2.630717e+00 2.569513e+00
1 1.476531e+00 1.501953e+00 1.187254e+00
1 4.024371e+00 4.135187e+00 1.493340e+00
1 4.183029e+00 1.250977e+00 4.076602e+00
1 1.222115e+00 3.948968e+00 4.111932e+00
8
Atoms. Timestep: 150
1 5.511104e-02 2.178099e-02 1.354970e-01
1 2.842985e+00 2.782354e+00 -1.054441e-01
1 2.556835e+00 1.537022e-02 2.821445e+00
1 -7.340046e-02 2.634955e+00 2.569620e+00
1 1.480859e+00 1.502420e+00 1.181856e+00
1 4.022435e+00 4.135371e+00 1.501017e+00
1 4.181602e+00 1.247651e+00 4.075558e+00
1 1.223573e+00 3.950098e+00 4.110450e+00
8
Atoms. Timestep: 152
1 5.785908e-02 2.343311e-02 1.341110e-01
1 2.840366e+00 2.781424e+00 -1.070114e-01
1 2.558416e+00 1.197566e-02 2.824237e+00
1 -7.690496e-02 2.639058e+00 2.569994e+00
1 1.485124e+00 1.502600e+00 1.177021e+00
1 4.020273e+00 4.135752e+00 1.508366e+00
1 4.179923e+00 1.244405e+00 4.074420e+00
1 1.224943e+00 3.951351e+00 4.108863e+00
8
Atoms. Timestep: 154
1 6.052286e-02 2.475290e-02 1.326555e-01
1 2.838135e+00 2.780702e+00 -1.086846e-01
1 2.559993e+00 8.755875e-03 2.826901e+00
1 -8.004670e-02 2.642987e+00 2.570635e+00
1 1.489293e+00 1.502487e+00 1.172792e+00
1 4.017889e+00 4.136340e+00 1.515334e+00
1 4.178003e+00 1.241254e+00 4.073190e+00
1 1.226211e+00 3.952721e+00 4.107178e+00
8
Atoms. Timestep: 156
1 6.308613e-02 2.572900e-02 1.311415e-01
1 2.836320e+00 2.780202e+00 -1.104664e-01
1 2.561550e+00 5.732821e-03 2.829426e+00
1 -8.279577e-02 2.646704e+00 2.571540e+00
1 1.493335e+00 1.502075e+00 1.169207e+00
1 4.015289e+00 4.137142e+00 1.521876e+00
1 4.175851e+00 1.238215e+00 4.071874e+00
1 1.227364e+00 3.954199e+00 4.105402e+00
8
Atoms. Timestep: 158
1 6.553352e-02 2.635352e-02 1.295794e-01
1 2.834942e+00 2.779939e+00 -1.123580e-01
1 2.563072e+00 2.927290e-03 2.831805e+00
1 -8.512739e-02 2.650177e+00 2.572707e+00
1 1.497224e+00 1.501364e+00 1.166297e+00
1 4.012481e+00 4.138161e+00 1.527948e+00
1 4.173483e+00 1.235300e+00 4.070478e+00
1 1.228392e+00 3.955778e+00 4.103544e+00
8
Atoms. Timestep: 160
1 6.785051e-02 2.662193e-02 1.279784e-01
1 2.834016e+00 2.779924e+00 -1.143588e-01
1 2.564542e+00 3.588606e-04 2.834029e+00
1 -8.702213e-02 2.653378e+00 2.574133e+00
1 1.500935e+00 1.500350e+00 1.164085e+00
1 4.009478e+00 4.139396e+00 1.533511e+00
1 4.170913e+00 1.232523e+00 4.069010e+00
1 1.229287e+00 3.957447e+00 4.101612e+00
8
Atoms. Timestep: 162
1 7.002334e-02 2.653290e-02 1.263473e-01
1 2.833555e+00 2.780163e+00 -1.164663e-01
1 2.565943e+00 -1.954147e-03 2.836091e+00
1 -8.846591e-02 2.656284e+00 2.575811e+00
1 1.504450e+00 1.499036e+00 1.162591e+00
1 4.006295e+00 4.140843e+00 1.538531e+00
1 4.168159e+00 1.229897e+00 4.067478e+00
1 1.230040e+00 3.959197e+00 4.099617e+00
8
Atoms. Timestep: 164
1 7.203895e-02 2.608814e-02 1.246941e-01
1 2.833561e+00 2.780663e+00 -1.186758e-01
1 2.567258e+00 -3.994727e-03 2.837987e+00
1 -8.945006e-02 2.658877e+00 2.577733e+00
1 1.507754e+00 1.497425e+00 1.161826e+00
1 4.002950e+00 4.142493e+00 1.542976e+00
1 4.165239e+00 1.227431e+00 4.065891e+00
1 1.230649e+00 3.961018e+00 4.097568e+00
8
Atoms. Timestep: 166
1 7.388492e-02 2.529222e-02 1.230262e-01
1 2.834036e+00 2.781424e+00 -1.209802e-01
1 2.568469e+00 -5.747270e-03 2.839710e+00
1 -8.997113e-02 2.661141e+00 2.579891e+00
1 1.510835e+00 1.495521e+00 1.161796e+00
1 3.999463e+00 4.144333e+00 1.546822e+00
1 4.162174e+00 1.225137e+00 4.064260e+00
1 1.231109e+00 3.962898e+00 4.095475e+00
8
Atoms. Timestep: 168
1 7.554942e-02 2.415232e-02 1.213507e-01
1 2.834973e+00 2.782447e+00 -1.233700e-01
1 2.569557e+00 -7.197661e-03 2.841255e+00
1 -9.003075e-02 2.663068e+00 2.582271e+00
1 1.513687e+00 1.493334e+00 1.162500e+00
1 3.995859e+00 4.146346e+00 1.550046e+00
1 4.158985e+00 1.223023e+00 4.062596e+00