LAMMPS data file via write_data, version 27 May 2021, timestep = 585

3200 atoms
2 atom types

0 10.862 xlo xhi
0 10.862 ylo yhi
0 543.1 zlo zhi

Masses

1 28.0855
2 72.64

Atoms # atomic

4 1 1.3538698113190142 1.356411766923487 1.4120413503522928 0 0 0
1604 1 0.009625376339000097 10.859514796040873 0.05099474227790169 0 -1 0
1601 1 5.4417875835007266 10.84199676229268 0.0749420753010229 0 -1 0
1 1 6.775885346579774 1.3829394306624572 1.3898237976708703 0 0 0
5 1 4.071171454936706 4.083011910290185 1.41174648592412 0 0 0
1605 1 2.6945424382507057 2.73733271073278 0.07370726901886025 0 0 0
1602 1 8.143158058128886 2.7288237414715004 0.048667380116335784 0 0 0
2 1 9.501316671039394 4.076138233601032 1.4017740160058514 0 0 0
1614 1 10.858878331886936 5.436753364167971 0.05470307950592704 -1 0 0
1606 1 5.4284781096093395 5.43108976489201 0.050368584368627914 0 0 0
14 1 1.3613370048917062 6.78864409608081 1.4012622062651798 0 0 0
1615 1 2.7150145636154304 8.141043496503244 0.047473186822698 0 0 0
6 1 6.785261988889536 6.782923068352046 1.4077248870706014 0 0 0
1607 1 8.14761124768761 8.131140364872634 0.054871708105951 0 0 0
15 1 4.065282366332973 9.493714684546587 1.4072764162958284 0 0 0
7 1 9.524445441648302 9.48235402504282 1.3874327393295465 0 0 0
8 1 4.0848432581194976 1.3414190483955948 4.094149305678629 0 0 0
1608 1 2.7124691066661715 10.85532460958751 2.7549198562298574 0 -1 0
1603 2 8.150139838655463 0.0035639902395812563 2.7585059811160537 0 0 0
3 1 9.526615367300023 1.378279542214564 4.134110307141716 0 0 0
16 1 1.3363099297760452 4.094408098717935 4.093823704595421 0 0 0
1616 1 10.858262543582228 2.7212245037537834 2.752764028076231 -1 0 0
1609 1 5.429132784591934 2.7247267859019395 2.7597180828848833 0 0 0
9 1 6.787857815747029 4.078274992841788 4.11578120526732 0 0 0
1617 1 2.713941800301649 5.439415382133418 2.7588184771613466 0 0 0
1610 1 8.143392031503042 5.425305435681022 2.7547443345276252 0 0 0
1629 1 0.010352533520697807 8.14050851465502 2.7577523667764234 0 0 0
17 1 4.068445632987911 6.788929177141279 4.116139937601722 0 0 0
1618 1 5.419373206813295 8.135162100506902 2.754895557674691 0 0 0
10 1 9.5208317415323 6.766036290037078 4.093508445013149 0 0 0
29 1 1.3604851042674864 9.501402858176947 4.114083562965576 0 0 0
18 1 6.7523830787461145 9.496489559623523 4.113940621572227 0 0 0
1619 1 0.009490239039419222 10.860843761411472 5.4685241343924424 0 -1 0
1611 1 5.41667712167033 10.854583557855303 5.470690412791922 0 -1 0
1620 2 2.7062899587440086 2.7165958890211925 5.467607001110021 0 0 0
1612 1 8.155206399456068 2.7311652931024297 5.467429897359431 0 0 0
1630 1 10.86065064008545 5.431414894666107 5.4766517422856715 -1 0 0
1621 1 5.432114672160877 5.440156948073409 5.465801872977478 0 0 0
1631 1 2.712950168860937 8.142969648576907 5.471053208480934 0 0 0
1622 2 8.146520165981812 8.132319211724784 5.474811935150099 0 0 0
19 1 1.336449913770336 1.3425406804324398 6.851428693066224 0 0 0
1623 1 2.6882622707257293 10.82950864299169 8.179499920491129 0 -1 0
11 1 6.793363560883126 1.3577461218505913 6.785455766329159 0 0 0
1613 2 8.15177382067397 10.86026960017088 8.190087816007415 0 -1 0
1632 1 10.861339849183755 2.7234650061132792 8.196252982050794 -1 0 0
20 1 4.065046697132164 4.11818357942727 6.825074487792249 0 0 0
1624 2 5.443890646501812 2.735105634103945 8.174126871809216 0 0 0
12 1 9.505678860355891 4.078491635399036 6.837232198217409 0 0 0
1633 1 2.705305196645482 5.442551036840897 8.191490125285016 0 0 0
1625 1 8.156337675537722 5.433518712206232 8.200519810430087 0 0 0
30 1 1.3560454537090936 6.789653132151772 6.82772416662111 0 0 0
1645 1 0.01246916853528453 8.140340521410394 8.193772226938565 0 0 0
1634 1 5.41765932267005 8.139505032670463 8.195334547995687 0 0 0
21 1 6.7716695292964815 6.76701441040237 6.8585163596533745 0 0 0
31 1 4.067487199045991 9.495344617866655 6.830645569608091 0 0 0
22 1 9.544897627117727 9.497168338437291 6.829883514417662 0 0 0
23 2 4.049977656477443 1.3370225299468175 9.569631717938508 0 0 0
13 1 9.52406674626434 1.373203764058778 9.56852440217965 0 0 0
32 1 1.3578943310093636 4.080579601329534 9.545428644469565 0 0 0
24 1 6.8096678427901995 4.091235463377592 9.568264715560108 0 0 0
33 1 4.059481203919176 6.789535417566301 9.549947985520665 0 0 0
25 1 9.51292639793138 6.795405030508884 9.54426526756802 0 0 0
45 1 1.3519352939530858 9.493236832631522 9.561651802618645 0 0 0
34 1 6.770982877384555 9.482769433057591 9.561071393113073 0 0 0
35 1 1.3569782915464086 1.3513079538940305 12.280651264601387 0 0 0
1635 1 0.007595552886795219 0.0029283424449327196 10.914750020998722 0 0 0
1626 1 5.440225369093196 10.832709777894747 10.936049294963768 0 -1 0
26 1 6.782310667196118 1.3505789748598 12.270780220107326 0 0 0
36 1 4.063958567476516 4.0717429642961624 12.274299963128621 0 0 0
1636 1 2.684629755879011 2.732667157267063 10.933480494495383 0 0 0
1627 1 8.13093811115011 2.6953181511643107 10.90331305470751 0 0 0
27 2 9.513481506310136 4.067583393540322 12.268789819301317 0 0 0
1646 1 0.018644993559137277 5.452662430763952 10.892288964031035 0 0 0
1637 1 5.402539598389019 5.416093093576483 10.894197081043222 0 0 0
46 1 1.3681085205030652 6.788289174449398 12.26560348864141 0 0 0
1647 1 2.7177921737210977 8.146546434724574 10.913406354874505 0 0 0
37 2 6.775387366997595 6.7950529957784855 12.267380144785788 0 0 0
1638 1 8.167812125766735 8.159408356004295 10.894910473734553 0 0 0
47 1 4.064876612440337 9.498486074413188 12.277176740525887 0 0 0
38 1 9.506437033588218 9.514252906582652 12.263727608685436 0 0 0
1639 1 2.722423192695974 0.0016887631427897475 13.625374940710866 0 0 0
1628 1 8.14052000274014 10.859045768155607 13.622023617989607 0 -1 0
1648 1 0.021109838103792432 2.698800920004823 13.652299426390025 0 0 0
1640 1 5.424447915714991 2.710520086400463 13.62108065025695 0 0 0
1649 1 2.7147657553161895 5.432127039187502 13.631467506371125 0 0 0
1641 1 8.124836556149205 5.412280533347881 13.646315981292974 0 0 0
1661 1 0.016652794709088602 8.160900450060891 13.599913049596484 0 0 0
1650 1 5.407563335051517 8.165055494440558 13.653836989625367 0 0 0
1651 2 10.85393319947005 10.850550252207 16.33596562700374 -1 -1 0
39 1 4.077772217953787 1.353415263355235 14.981362414346409 0 0 0
1642 1 5.43349976362552 0.00602449228236561 16.344547832394376 0 0 0
28 1 9.476923702291238 1.3704241537610091 14.9714892835284 0 0 0
48 1 1.3690781390842597 4.072060850230577 14.993728948990071 0 0 0
1652 1 2.734083327838425 2.717235184615765 16.334889274311468 0 0 0
40 1 6.770271866403869 4.061732228573071 14.987743000173303 0 0 0
1643 1 8.128633465793039 2.7146713094202193 16.34095247853349 0 0 0
1662 1 0.016459239511535228 5.41627723636999 16.360918934347144 0 0 0
1653 1 5.435539034170683 5.432952003718407 16.340374231224985 0 0 0
49 1 4.069608749692438 6.782487887005726 14.992096973791613 0 0 0
1663 1 2.7195890056892256 8.145075034006574 16.33916766094122 0 0 0
1654 1 8.118875156535974 8.16449777634505 16.366215127457025 0 0 0
41 2 9.505254601550726 6.797688381727509 14.99250961447361 0 0 0
61 1 1.3803523182603146 9.487466540031122 14.962421164070642 0 0 0
50 1 6.784726703056372 9.514390491597588 14.989037972894483 0 0 0
51 1 1.3773521576905448 1.369435964208354 17.682462489042916 0 0 0
42 1 6.788391812180352 1.3552686414334665 17.707409007918706 0 0 0
52 1 4.103270079522311 4.056283030734511 17.684567340010336 0 0 0
43 1 9.470616705171313 4.090016922965111 17.685392375324987 0 0 0
62 1 1.343128303549206 6.815123660303954 17.690982527686383 0 0 0
53 1 6.77981270578809 6.786615266291826 17.708511591376457 0 0 0
63 1 4.097670642054089 9.482876068553336 17.687056998400124 0 0 0
54 1 9.48025876338617 9.490779187994933 17.730189866584393 0 0 0
55 1 4.101716027503198 1.3779596791748403 20.439566050786052 0 0 0
1655 2 2.7266538844668013 10.854442262087394 19.07167811799274 0 -1 0
1644 1 8.132634546911989 10.858007191385502 19.069061156915684 0 -1 0
44 1 9.473119734350647 1.3287985764043608 20.448376478259018 0 0 0
64 2 1.355698694881697 4.07615705215576 20.46606856563593 0 0 0
1664 2 10.82983423629762 2.6985462439101457 19.05513411662452 -1 0 0
1656 1 5.445111808262511 2.7195393698654344 19.064900197116 0 0 0
56 1 6.7925541209626354 4.076126486254907 20.426377211474133 0 0 0
1665 2 2.7432357267784337 5.453245490264968 19.050864572740366 0 0 0
1657 1 8.136725900030733 5.436742474732595 19.065423913292726 0 0 0
1677 1 10.847368055971229 8.140615911035722 19.069574800708267 -1 0 0
65 1 4.104908170271327 6.8114766137400595 20.44634397823965 0 0 0
1666 1 5.442687079230957 8.149627413367043 19.068641885735495 0 0 0
57 1 9.491604694662497 6.78870471776837 20.424932590351506 0 0 0
77 1 1.331511897136544 9.484490893718453 20.439973179280845 0 0 0
66 1 6.792030955560032 9.502519645605828 20.42621910845565 0 0 0
1667 1 10.85351185467554 10.853924154244131 21.79353178461179 -1 -1 0
1658 1 5.460019430637474 0.020093484786642732 21.7708448762727 0 0 0
1668 1 2.739861155619431 2.6930161183531625 21.817404573375544 0 0 0
1659 1 8.141428949695925 2.71867722215335 21.788488704664662 0 0 0
1678 1 10.827834521020893 5.4546645255559865 21.813710758879488 -1 0 0
1669 1 5.441337810119087 5.429727719337582 21.790290219779138 0 0 0
1679 1 2.695556144818074 8.127889743844422 21.775834375666797 0 0 0
1670 1 8.146397534430184 8.148626161595752 21.783429248077788 0 0 0
67 1 1.3484068411631807 1.3522331693371115 23.144420923287097 0 0 0
1671 1 2.6956971911671834 0.01786450630592186 24.518416775579393 0 0 0
58 1 6.79547938461432 1.3640976595301566 23.148704273198717 0 0 0
1660 1 8.149628102706016 0.003077745733236748 24.497374038958853 0 0 0
1680 1 10.854844856944439 2.7118207698795413 24.492256679956665 -1 0 0
68 1 4.086484775440231 4.072067164583332 23.14664002039989 0 0 0
1672 1 5.436733810975322 2.7156269379851703 24.503345105327448 0 0 0
59 1 9.493657426490882 4.069590674273466 23.148282838853863 0 0 0
1681 1 2.697054828355095 5.4109845378617 24.47725766295899 0 0 0
1673 1 8.146158740161681 5.427442440347889 24.500881774665093 0 0 0
78 1 1.3458560247347844 6.791589515415577 23.149764183683615 0 0 0
1693 1 10.85783710894933 8.14937600938305 24.505962183007313 -1 0 0
1682 1 5.4701906144220995 8.146333206951155 24.495005353619224 0 0 0
69 1 6.803679990062096 6.782974907501819 23.13832653215737 0 0 0
79 2 4.073698475651936 9.512201654754849 23.138797492480727 0 0 0
70 1 9.499418289977374 9.499450886866851 23.147748759431348 0 0 0
71 1 4.073426647040954 1.362216619549375 25.85328521894148 0 0 0
60 1 9.503931799481217 1.35813213504307 25.849536844186286 0 0 0
80 1 1.354174247759028 4.061331088287615 25.84384872022723 0 0 0
72 1 6.797368980051962 4.068703291173757 25.853544476849432 0 0 0
81 2 4.074108640199254 6.78327675632617 25.85482997165644 0 0 0
73 1 9.500556940634171 6.784714452680866 25.851499509482814 0 0 0
93 1 1.347675342973499 9.511684656018016 25.857935803760686 0 0 0
82 1 6.795541012489101 9.514448048647276 25.853328864582625 0 0 0
83 1 1.3598968361877684 1.3626426331031258 28.56273977234208 0 0 0
1683 1 10.861403637879008 0.011234991457004021 27.20650955549586 -1 0 0
1674 1 5.429514668811836 0.0030450968130569522 27.202423896495567 0 0 0
74 1 6.767998023175314 1.378053786107661 28.551136955658123 0 0 0
84 1 4.09119370527014 4.044618362552518 28.556272316335715 0 0 0
1684 1 2.714166991108941 2.7144272571658217 27.20332615987201 0 0 0
1675 1 8.14910494617404 2.7106732457679032 27.203575434722875 0 0 0
75 1 9.523534105894845 4.050400136686336 28.550113215042412 0 0 0
1694 1 10.859789731002799 5.41868315575323 27.19158922365502 -1 0 0
1685 1 5.450205921754363 5.4066194082432455 27.225440390533162 0 0 0
94 1 1.3556450536788016 6.776827309922623 28.529759146954383 0 0 0
1695 1 2.7026410554854787 8.172016575524715 27.221529115092142 0 0 0
85 1 6.773632526201959 6.807839062802302 28.555667143177583 0 0 0
1686 1 8.140237658159448 8.144550965134053 27.19699381616127 0 0 0
95 1 4.078288662303228 9.51454769272927 28.566268880966017 0 0 0
86 1 9.494793043377978 9.508594364659498 28.52995611801968 0 0 0
1687 1 2.741605242251746 0.030664659007058993 29.909003326567365 0 0 0
1676 2 8.139219371990865 0.006729524303198972 29.93108738147979 0 0 0
1696 1 0.006579424077373151 2.7101123239472362 29.9263761290777 0 0 0
1688 1 5.4274488013552356 2.7086859138949353 29.935625857057993 0 0 0
1697 2 2.7208126913181316 5.422779338632264 29.928885893890282 0 0 0
1689 2 8.140853311723362 5.420646395695997 29.92907185251643 0 0 0
1709 2 10.84766488931108 8.133182373930884 29.914771051133084 -1 0 0
1698 1 5.425850412996409 8.15378174953691 29.92413648388164 0 0 0
1699 1 10.85617860838146 0.02675480022433156 32.676911925963246 -1 0 0
87 1 4.074482852315427 1.3640828157854947 31.2952314287183 0 0 0
1690 1 5.418736294943104 10.857355653273952 32.64642745397717 0 -1 0
76 1 9.521097131833306 1.3780400723343245 31.30548328478865 0 0 0
96 1 1.341945841359455 4.053208499894744 31.306292572348184 0 0 0
1700 1 2.712535320090131 2.711178495114111 32.654103411057 0 0 0
88 1 6.76504740768318 4.053401802260809 31.309166306910875 0 0 0
1691 1 8.148932636826986 2.7191848002682395 32.6484167766028 0 0 0
1710 1 0.008067427873060152 5.425963109891223 32.659737896058076 0 0 0
1701 1 5.427119498801797 5.433436039144738 32.65240620177176 0 0 0
97 1 4.093314842064982 6.804916463204856 31.30157823373546 0 0 0
1711 1 2.742299513233467 8.133095933717572 32.678555351414786 0 0 0
1702 1 8.140322452857648 8.14713129717339 32.65681890806021 0 0 0
89 1 9.498867872898503 6.779364642377634 31.32828496308504 0 0 0
109 2 1.384304127576029 9.527691765006706 31.306643035465193 0 0 0
98 1 6.769040937278052 9.487649205488648 31.306078536757642 0 0 0
99 1 1.367029938712163 1.3626177127859567 34.02544307013729 0 0 0
90 1 6.783825790171328 1.3563722647991792 33.97443588197643 0 0 0
100 1 4.047849019459225 4.096143389279063 33.99607506454087 0 0 0
91 1 9.521686027334075 4.056892771507079 33.99901459270167 0 0 0
110 1 1.3630172474494575 6.78315920926166 34.0128055630016 0 0 0
101 1 6.76715016611584 6.805913876474301 34.001344178708756 0 0 0
111 1 4.078863363278055 9.509687891582674 34.0220219227063 0 0 0
102 1 9.525067516245663 9.48345281208088 33.997680821499785 0 0 0
103 1 4.050992943782492 1.3374996270509858 36.75170761653215 0 0 0
1703 1 2.7170371642887385 10.858187574993595 35.37125433363559 0 -1 0
1692 2 8.146087535773955 10.856534301601029 35.367805319751156 0 -1 0
92 1 9.51002010322676 1.392793575968747 36.727257317073864 0 0 0
112 1 1.3619430257107152 4.077699315533057 36.72785562007754 0 0 0
1712 1 0.013237113387825978 2.7240978581115964 35.37036736589898 0 0 0
1704 2 5.418822025321113 2.7170692388557836 35.373206700270124 0 0 0
104 1 6.7857614516084155 4.076940965305551 36.77097659313929 0 0 0
1713 1 2.7115140496610635 5.436391510624577 35.375297060087654 0 0 0
1705 2 8.151317813766173 5.437465897964627 35.37550583165159 0 0 0
1725 1 0.013657997272547292 8.141822383944403 35.36579189528803 0 0 0
113 1 4.0688917092034 6.788914631660481 36.729072487689336 0 0 0
1714 1 5.42166549081604 8.145931178277008 35.37574490644691 0 0 0
105 1 9.529169423001647 6.811736992157268 36.748626014230794 0 0 0
125 1 1.3795485000014918 9.484325983604817 36.7152024175796 0 0 0
114 1 6.769509167384851 9.485041629318733 36.74567102093865 0 0 0
1715 2 0.007932713364944301 10.861454250292338 38.09715181567108 0 -1 0
1706 1 5.427838254710499 10.855438480638854 38.09119903700932 0 -1 0
1716 1 2.7103085823116 2.7215857461735804 38.08732431919211 0 0 0
1707 1 8.15292120030518 2.7164213339549015 38.097596232420095 0 0 0
1726 1 0.009497328852952633 5.430058678060004 38.08555563296304 0 0 0
1717 1 5.419887997137487 5.443362162375583 38.09323830690181 0 0 0
1727 1 2.7211503392583336 8.142499329907697 38.093281827558336 0 0 0
1718 1 8.14466529985839 8.147065275727034 38.089767240079084 0 0 0
115 1 1.3789490124914985 1.3808566960151105 39.472551257862264 0 0 0
1719 1 2.7358146957261713 0.013182220598123838 40.79903713812954 0 0 0
106 1 6.80840172007086 1.3352482321589534 39.431186142273404 0 0 0
1708 1 8.146020537878812 10.860114951940504 40.81511879127264 0 -1 0
1728 1 0.0028319393077161316 2.71625748567622 40.81993792360682 0 0 0
116 1 4.054193422081413 4.090756892740493 39.431493329909294 0 0 0
1720 2 5.43180138102085 2.7119479686730052 40.80660216704399 0 0 0
107 1 9.53015185476121 4.058612529711667 39.436157668026766 0 0 0
1729 1 2.692043919775209 5.420489840910261 40.793950005475914 0 0 0
1721 2 8.153084541936854 5.4352056823093315 40.81118171620838 0 0 0
126 1 1.356123808989426 6.787687423593253 39.440718082596575 0 0 0
1741 1 10.8495367938342 8.124701267226714 40.792189191984065 -1 0 0
1730 1 5.44623988186892 8.172451464766883 40.797317747695296 0 0 0
117 1 6.772902257774992 6.807358101705654 39.434042140439686 0 0 0
127 1 4.072949527427857 9.506784492227803 39.446475260596074 0 0 0
118 1 9.483570621079648 9.487267180744995 39.46704622269115 0 0 0
119 1 4.066114049883011 1.3405192343556542 42.19022551497284 0 0 0
108 1 9.493534609147304 1.3654020690533784 42.16362657038435 0 0 0
128 1 1.3523605524768332 4.0784757227596815 42.17133427567534 0 0 0
120 1 6.7963604244162115 4.068068962914769 42.20517675591004 0 0 0
129 2 4.078403728474518 6.785979755736882 42.17203401566117 0 0 0
121 1 9.52226563985443 6.804930257915816 42.19454948233161 0 0 0
141 2 1.353243010827241 9.503729943176747 42.1677582911511 0 0 0
130 1 6.79265680108383 9.509881307037077 42.175143018369795 0 0 0
131 2 1.3550786737810105 1.3651794504737882 44.89089662828591 0 0 0
1731 1 10.81984618547041 0.004203743275314597 43.5278744008252 -1 0 0
1722 1 5.435016852180907 10.857349122023155 43.536446369363496 0 -1 0
122 1 6.790351902400549 1.3559268819791435 44.88697509761538 0 0 0
132 1 4.076291552412356 4.073871278395436 44.89279673218758 0 0 0
1732 1 2.730795405649363 2.73783515438337 43.51381613897308 0 0 0
1723 1 8.153462019737654 2.710496261514736 43.539947835021465 0 0 0
123 1 9.50207274575034 4.0803680889703635 44.88640826725047 0 0 0
1742 1 0.005040082642971291 5.431982465493943 43.536906408427505 0 0 0
1733 1 5.451579267100606 5.417814539651456 43.55644335993212 0 0 0
142 1 1.354442574739925 6.783616949678642 44.89938090210513 0 0 0
1743 1 2.715696142886183 8.146579872062317 43.5694981499082 0 0 0
133 1 6.796752218901254 6.7933515961121405 44.89135689505106 0 0 0
1734 1 8.144453350956338 8.150862800437112 43.53272966138314 0 0 0
143 1 4.086465889583774 9.502590703628323 44.89675333932169 0 0 0
134 1 9.493857147123952 9.50258753381938 44.892710723354874 0 0 0
1735 1 2.7348712031554165 10.846103845763091 46.258097033569584 0 -1 0
1724 1 8.143649911984268 0.0014679606179367388 46.24230497266351 0 0 0
1744 1 10.842961753501758 2.7410428260580817 46.262482385578835 -1 0 0
1736 1 5.433398183266097 2.7133906594127026 46.23829190853655 0 0 0
1745 1 2.7171748419477626 5.428858569760361 46.24357086297055 0 0 0
1737 1 8.148337716764228 5.434717204487752 46.24074875420113 0 0 0
1757 1 10.858513306573283 8.148060407410455 46.240592726205094 -1 0 0
1746 1 5.439433352753307 8.144357809891366 46.24373148518524 0 0 0
1747 1 0.00151272953290689 0.004665295914085901 48.93411901528167 0 0 0
135 1 4.080251392040841 1.3593795484166902 47.59354216183877 0 0 0
1738 1 5.435373584050273 0.0029410232913884165 48.94112703518417 0 0 0
124 1 9.498339641559374 1.3596254957959493 47.592594203269606 0 0 0
144 1 1.3597050181407075 4.079835686891639 47.59949612535981 0 0 0
1748 1 2.7168801087568113 2.7126638871919626 48.938508042738086 0 0 0
136 1 6.789956968702441 4.073796462856947 47.58667178524053 0 0 0
1739 1 8.142921072384885 2.7158145381264465 48.93974113449616 0 0 0
1758 1 10.858732937126177 5.434347591216055 48.943024945690425 -1 0 0
1749 1 5.430393988692139 5.4294803145013795 48.935473255573804 0 0 0
145 1 4.076113163526791 6.7887582418068355 47.58804811649555 0 0 0
1759 1 2.720678099800076 8.146528306402605 48.93775112105963 0 0 0
1750 1 8.149867770111618 8.149957291826638 48.940120839836624 0 0 0
137 1 9.50403460360497 6.790606921287522 47.591749181627215 0 0 0
157 1 1.3572471889702153 9.500445114562472 47.5923346013933 0 0 0
146 1 6.790598335235693 9.505756394602185 47.592946251863324 0 0 0
147 1 1.3596478313472473 1.3552347750943587 50.2882091853135 0 0 0
138 1 6.789768160418722 1.3595039169117629 50.29112531356236 0 0 0
148 1 4.078572405748966 4.066449720408051 50.284195650972165 0 0 0
139 1 9.504978994520146 4.0678260907215416 50.28771045662376 0 0 0
158 1 1.3598512834250551 6.791449759148058 50.28158077221401 0 0 0
149 1 6.786369316386408 6.790618604922204 50.2798410534869 0 0 0
159 1 4.073031230486084 9.510954390498634 50.28601550757138 0 0 0
150 1 9.504057053770131 9.516515091079649 50.28407890140543 0 0 0
151 1 4.077093757298182 1.3538383687750204 52.99717726608214 0 0 0
1751 1 2.7192153486480195 0.0033157805442742706 51.64287545491966 0 0 0
1740 1 8.150472666637116 0.009009346243050354 51.641294652138754 0 0 0
140 1 9.505521204171611 1.3592262328700628 52.99892282039367 0 0 0
160 1 1.3798217879847179 4.041654255352939 52.980489607305834 0 0 0
1760 1 10.860205096103192 2.7073713920720173 51.6385830229994 -1 0 0
1752 1 5.42907778203139 2.709128686948783 51.64183482198586 0 0 0
152 1 6.790767258853705 4.05550823620177 52.99459992103343 0 0 0
1761 1 2.7004626167454684 5.4121768757752085 51.61782758010229 0 0 0
1753 1 8.122375101484026 5.411042880028088 51.62096593149582 0 0 0
1773 1 0.024267805252631364 8.175657145177789 51.617609812662586 0 0 0
161 2 4.069165373873487 6.791607737845207 52.99482930047847 0 0 0
1762 1 5.450381388325971 8.168898439668522 51.62502736369197 0 0 0
153 2 9.493083584447263 6.807980349703612 52.97614422605921 0 0 0
173 1 1.3600975789277572 9.517954917474661 52.99984473889655 0 0 0
162 1 6.785486424307302 9.526484945265555 52.9922247681886 0 0 0
1763 1 0.001445337717535494 0.008029718027227507 54.35297400733387 0 0 0
1754 1 5.429543786690507 0.00509231389827646 54.356655361241096 0 0 0
1764 1 2.723563313404915 2.702437311555018 54.35402120315889 0 0 0
1755 1 8.14464185933775 2.7056435760745754 54.35612466544337 0 0 0
1774 2 0.020966188811622904 5.410898073313786 54.37538221338685 0 0 0
1765 1 5.431807743855569 5.391934903880239 54.35345820135669 0 0 0
1775 1 2.7023977840013305 8.174094296726599 54.375999728966036 0 0 0
1766 1 8.142128848342335 8.19378780731717 54.35317969203388 0 0 0
163 1 1.3606704925643829 1.3569487487393668 55.707051043494594 0 0 0
1767 1 2.716319820063154 0.012766418553982443 57.06806117978994 0 0 0
154 1 6.787322712970843 1.3550137367654242 55.71325838870034 0 0 0
1756 1 8.1450829576663 0.004719276752899492 57.07106059862013 0 0 0
1776 1 0.005957250884515441 2.6983861027327567 57.07136856911972 0 0 0
164 1 4.073876244103453 4.055445309872462 55.71293980262857 0 0 0
1768 1 5.434088441811243 2.7094285600198798 57.07128883770199 0 0 0
155 1 9.491278004729905 4.0406649834353185 55.736205688215016 0 0 0
1777 1 2.7297758596691892 5.421255561997214 57.06575641217024 0 0 0
1769 1 8.160987671371014 5.4111322481694595 57.089908056039896 0 0 0
174 1 1.38002564515436 6.807884718545059 55.74306506482519 0 0 0
1789 1 10.855865365735601 8.159966168404397 57.065025595067894 -1 0 0
1778 1 5.414445928853785 8.17089382678618 57.086977864627904 0 0 0
165 2 6.788949626463419 6.79106767153764 55.71776136950122 0 0 0
175 1 4.072655162210964 9.520807597117813 55.71806192011662 0 0 0
166 1 9.507363548991655 9.522616056006804 55.71258511413697 0 0 0
167 1 4.078036904895773 1.3564276407492597 58.42729902838529 0 0 0
156 1 9.502299729164406 1.3572812468880298 58.42554420818871 0 0 0
176 1 1.3796950030513704 4.0506876449852 58.40607601141176 0 0 0
168 1 6.790374066553803 4.0626083639941815 58.42839717235053 0 0 0
177 1 4.091881326579107 6.768094207162906 58.412717528942665 0 0 0
169 1 9.491830951829112 6.810766814924488 58.411453362330015 0 0 0
189 1 1.340038326715138 9.52976977858655 58.40671457907765 0 0 0
178 1 6.788246126740324 9.515110085240991 58.430094611391446 0 0 0
179 1 1.3528476426919946 1.3625672854868573 61.12921508129611 0 0 0
1779 1 10.857307772332808 0.0071187082543664 59.77826290295252 -1 0 0
1770 1 5.437886968996693 0.009937364659912046 59.7844356150345 0 0 0
170 1 6.7953082076130205 1.3629538993104222 61.13260547431965 0 0 0
180 1 4.075926307279718 4.075085387237869 61.12684905624359 0 0 0
1780 1 2.722806992060711 2.7098867625519305 59.78095148921792 0 0 0
1771 1 8.14683412285617 2.709984420202343 59.77805249557808 0 0 0
171 1 9.483982877688685 4.0504188398398755 61.15716736632932 0 0 0
1790 2 10.861140852817016 5.424248058740522 59.78249902672937 -1 0 0
1781 1 5.440034642835954 5.423861011239216 59.776576425028274 0 0 0
190 1 1.359058031050381 6.788744174426643 61.177312176375615 0 0 0
1791 2 2.717329869219608 8.151435436108377 59.77929278370451 0 0 0
181 1 6.795159111943607 6.782507664145692 61.127107090313075 0 0 0
1782 1 8.142129612309258 8.153374532198841 59.778842353213165 0 0 0
191 1 4.093495046095985 9.524346097908728 61.149906415314156 0 0 0
182 1 9.507242436073556 9.505148557182517 61.12675853609142 0 0 0
1783 1 2.6957819072255362 10.855543666577013 62.47631794107201 0 -1 0
1772 1 8.169801880915005 0.017852602174152098 62.472751042190325 0 0 0
1792 1 0.002927699964673881 2.7110692067404196 62.49766509494178 0 0 0
1784 1 5.450644786560266 2.7377336994372414 62.47291537077895 0 0 0
1793 1 2.724312906695437 5.417633066807594 62.49539980036843 0 0 0
1785 1 8.143684840460573 5.432408461444317 62.49621456090578 0 0 0
1805 1 10.849562509806493 8.15351730025502 62.495534816034656 -1 0 0
1794 1 5.425803612718699 8.125559526162531 62.47458702663325 0 0 0
1795 1 10.857934622914538 0.0060451364329882655 65.21605242095819 -1 0 0
183 2 4.069832871097644 1.369836460856099 63.85150283596128 0 0 0
1786 1 5.4402725590803005 0.007625952819000574 65.23841683751247 0 0 0
172 1 9.509614360955736 1.357368796413206 63.85148912622597 0 0 0
192 1 1.3585167238626294 4.072787562308537 63.84373875739543 0 0 0
1796 1 2.6944643585179433 2.7397979040480194 65.2290961928577 0 0 0
184 1 6.790292628764359 4.077583286659619 63.85130290871073 0 0 0
1787 1 8.12893653191925 2.696345902627224 65.19177279249304 0 0 0
1806 1 0.011003956470957334 5.440583952426523 65.18110310173046 0 0 0
1797 1 5.438445393350242 5.426028341666169 65.21547316015305 0 0 0
193 1 4.093791996160084 6.7638803939534355 63.83673119043645 0 0 0
1807 2 2.717890558568332 8.14735066275231 65.20906657823473 0 0 0
1798 1 8.171833547697284 8.124127280013196 65.22876071366633 0 0 0
185 1 9.504744434545396 6.787712571199912 63.843590998587395 0 0 0
205 1 1.3336805849092077 9.523073284148285 63.83737869485357 0 0 0
194 2 6.801825493658879 9.49910526789845 63.850881521418835 0 0 0
195 1 1.3542642306052823 1.360749967428504 66.57045325368671 0 0 0
186 1 6.793790459879894 1.3608075341049544 66.57932171202161 0 0 0
196 1 4.076141572377429 4.076498504735939 66.57141250151152 0 0 0
187 2 9.504501442758416 4.071607463689482 66.56730453742679 0 0 0
206 1 1.3373204549334934 6.7667642731514235 66.5762157149259 0 0 0
197 1 6.792583094814576 6.784410263154282 66.5701888293441 0 0 0
207 1 4.094127284354132 9.523615747398473 66.58559307617845 0 0 0
198 1 9.508074937126224 9.505884064276518 66.57172355833949 0 0 0
199 1 4.0619018682254415 1.3870570483696465 69.27693242196581 0 0 0
1799 1 2.7344339866877383 0.024575416064274436 67.9121067501064 0 0 0
1788 1 8.154095872654132 0.0032187718884176693 67.92694044382364 0 0 0
188 1 9.482065177010154 1.3769593594470533 69.28446374285217 0 0 0
208 1 1.3555490380805932 4.070163023895102 69.30372995512681 0 0 0
1808 1 0.015524134061449386 2.700913834441836 67.95133131947539 0 0 0
1800 1 5.435958119746669 2.7220242753348485 67.92518984768493 0 0 0
200 1 6.808925573822253 4.050055203212507 69.28268578304026 0 0 0
1809 1 2.6919594191976697 5.4078692552132726 67.91663114487001 0 0 0
1801 1 8.132884631010917 5.444760477847617 67.9495553929759 0 0 0
1821 1 10.839989003962735 8.121552759270461 67.91587393825918 -1 0 0
209 2 4.063898074476264 6.798063744638346 69.27817434020254 0 0 0
1810 1 5.456873264881787 8.164335535819278 67.91295207266164 0 0 0
201 1 9.50187048501586 6.784471848723981 69.30113167684107 0 0 0
221 2 1.3683844721505474 9.493388502784711 69.27700269134883 0 0 0
210 1 6.818903069270552 9.49118206824467 69.27970475857846 0 0 0
211 1 1.3825315905135582 1.3810048934361925 72.0382516282477 0 0 0
1811 2 10.84275282351998 0.019056918069584265 70.68031724706044 -1 0 0
1802 2 5.433095891323672 0.0033820071253780346 70.6534834611459 0 0 0
202 1 6.804117779761194 1.380209196155868 72.03311744634897 0 0 0
212 1 4.057655190298135 4.051152771056538 72.04608362645821 0 0 0
1812 1 2.717584949757757 2.722370666357109 70.65770081921316 0 0 0
1803 1 8.153097712036619 2.7223658739899763 70.66300393095095 0 0 0
203 1 9.508032040798184 4.08342576316079 72.01238766076997 0 0 0
1822 1 0.0013965813382441682 5.433417596857129 70.6542048185602 0 0 0
1813 2 5.4522610888252725 5.409545449569506 70.68053947714236 0 0 0
222 1 1.3503398881911128 6.7797392970292885 72.02616660218877 0 0 0
1823 1 2.7116748478567163 8.14189439378106 70.69478479809264 0 0 0
213 1 6.814198348168785 6.805932987150972 72.04302411656386 0 0 0
1814 1 8.153162101319017 8.14078828234543 70.6576492881716 0 0 0
223 1 4.062732702798969 9.492891510936136 72.04331868798431 0 0 0
214 1 9.48427786751794 9.481028573686968 72.04117633769431 0 0 0
1815 1 2.7186616561778534 0.0037289616860179888 73.38680869915706 0 0 0
1804 1 8.124534055822027 10.844498262986319 73.36881575444244 0 -1 0
1824 1 0.01977856588143744 2.746048936942367 73.36171802932107 0 0 0
1816 1 5.433349484101342 2.71350509349021 73.38999564547389 0 0 0
1825 1 2.7135900614395396 5.4322569539785865 73.38130963909346 0 0 0
1817 1 8.157841925867857 5.430666674383376 73.38207995345182 0 0 0
1837 1 0.0006006897073530363 8.139683176193959 73.38259202924023 0 0 0
1826 1 5.433291586090308 8.144907701095834 73.3847224865895 0 0 0
1827 1 0.022157102418873163 10.843495650690059 76.09806816365271 0 -1 0