LAMMPS DATA file generated by GEO Finder

8 atoms

1 atom types

0.0 5.4300000000 xlo xhi
0.0 5.4300000000 ylo yhi
0.0 5.4300000000 zlo zhi

Masses

1 28.0855

Atoms

1 1 0.000000 0.000000 0.000000
2 1 2.715000 2.715000 0.000000
3 1 2.715000 0.000000 2.715000
4 1 0.000000 2.715000 2.715000
5 1 1.357500 1.357500 1.357500
6 1 4.072500 4.072500 1.357500
7 1 4.072500 1.357500 4.072500
8 1 1.357500 4.072500 4.072500
