LAMMPS DATA file generated by GEO Finder

32 atoms

2 atom types

0.0 5.431000 xlo xhi
0.0 5.431000 ylo yhi
0.0 21.724000 zlo zhi

Masses

1 28.0855
2 72.64

Atoms

1 1 0.000000 0.000000 0.000000
2 1 2.715500 2.715500 0.000000
3 1 2.715500 0.000000 2.715500
4 1 0.000000 2.715500 2.715500
5 1 0.000000 0.000000 5.461000
6 1 2.715500 2.715500 5.461000
7 1 2.715500 0.000000 8.146500
8 1 0.000000 2.715500 8.146500
9 1 1.357750 1.357750 1.357750
10 1 4.073250 4.073250 1.357750
11 1 4.073250 1.357750 4.073250
12 1 1.357750 4.073250 4.073250
13 1 1.357750 1.357750 6.788750
14 1 4.073250 4.073250 6.788750
15 1 4.073250 1.357750 9.504250
16 1 1.357750 4.073250 9.504250
17 2 0.000000 0.000000 10.862000
18 2 2.715500 2.715500 10.862000
19 2 2.715500 0.000000 13.577500
20 2 0.000000 2.715500 13.577500
21 2 0.000000 0.000000 16.293000
22 2 2.715500 2.715500 16.293000
23 2 2.715500 0.000000 19.008500
24 2 0.000000 2.715500 19.008500
25 2 1.357750 1.357750 12.219750
26 2 4.073250 4.073250 12.219750
27 2 4.073250 1.357750 14.935250
28 2 1.357750 4.073250 14.935250
29 2 1.357750 1.357750 17.650750
30 2 4.073250 4.073250 17.650750
31 2 4.073250 1.357750 20.366250
32 2 1.357750 4.073250 20.366250
