LAMMPS data file via write_data, version 27 May 2021, timestep = 616

3200 atoms
2 atom types

0 10.862 xlo xhi
0 10.862 ylo yhi
0 543.1 zlo zhi

Masses

1 28.0855
2 72.64

Atoms # atomic

4 1 1.3599790832136789 1.3542210095116909 1.2708877376969234 0 0 0
1604 1 10.845083514000347 0.029811437070971936 543.0363033854633 -1 0 -1
1601 1 5.460016460956916 10.849285889906152 543.0348241807793 0 -1 -1
1 1 6.794792032971613 1.3589770383762403 1.2678591893341196 0 0 0
5 1 4.064526392172026 4.055925535885099 1.28292916462376 0 0 0
1605 1 2.6996423092316477 2.72475759119311 543.042321481498 0 0 -1
1602 1 8.14319467284967 2.6961526077303604 543.0098832565969 0 0 -1
2 1 9.500703603468516 4.0258074161380915 1.2530582176244596 0 0 0
1614 2 10.861524951038739 5.41899527514911 543.0045234794676 -1 0 -1
1606 2 5.432454548594507 5.426800995553389 543.015196715492 0 0 -1
14 1 1.3821817200829851 6.767282656526664 1.2740677650635237 0 0 0
1615 2 2.747288316544987 8.142368058673197 543.026285372441 0 0 -1
6 1 6.784505310437648 6.827839142666872 1.2603808866025636 0 0 0
1607 1 8.14418682349711 8.160804572462162 543.0155874773658 0 0 -1
15 1 4.105789226538885 9.522863843123822 1.290069348856231 0 0 0
7 1 9.482955353320149 9.53234603815913 1.2460488836136823 0 0 0
8 1 4.082725239093143 1.3545652456448256 3.939843460281718 0 0 0
1608 1 2.729467383872057 0.011217826205169108 2.603029349059831 0 0 0
1603 1 8.14119203988303 0.00448929355565671 2.6128306971281656 0 0 0
3 1 9.500007783849323 1.3533707872957406 3.95056336372033 0 0 0
16 2 1.3665944557231677 4.066180549680688 3.96114776403899 0 0 0
1616 1 10.851723360009837 2.6904401719565088 2.600496195780092 -1 0 0
1609 1 5.431207585799624 2.7050741540400294 2.6050156053209275 0 0 0
9 1 6.755288388989392 4.054045404136159 3.970276923235401 0 0 0
1617 1 2.744345697501623 5.440116059280648 2.609782716944242 0 0 0
1610 2 8.123700224272415 5.4056450265344935 2.5952329961918057 0 0 0
1629 2 0.01840332871177006 8.174120283333671 2.595424485890215 0 0 0
17 1 4.084869006261031 6.789076734865373 3.96097581652684 0 0 0
1618 1 5.436403256854553 8.152128030720755 2.625648670022804 0 0 0
10 2 9.501149840548708 6.788668428647007 3.9890106003530112 0 0 0
29 1 1.3946684075751552 9.529430179768514 3.9589144315774303 0 0 0
18 1 6.791284127781596 9.510197793278717 3.9516182255042214 0 0 0
1619 1 0.009010540364179778 0.000998965054986953 5.269749696681263 0 0 0
1611 1 5.4283900113605315 0.00019769700669960605 5.269168623524907 0 0 0
1620 1 2.7633048939923777 2.7032276454268893 5.301597117511687 0 0 0
1612 1 8.160439214786708 2.7319971288073495 5.279037679064351 0 0 0
1630 1 0.009776377493764851 5.4281867933287 5.344996722981086 0 0 0
1621 1 5.427287287869856 5.430259321133026 5.310358699074034 0 0 0
1631 1 2.707714541377032 8.131980269641174 5.287475527664794 0 0 0
1622 1 8.10647677904577 8.154739322081062 5.314712687283575 0 0 0
19 2 1.3811370997371557 1.3423540635958322 6.656143452667597 0 0 0
1623 1 2.7209289016342457 10.849595325938008 8.05793533555664 0 -1 0
11 2 6.774815942953207 1.3799877392317212 6.641213817007517 0 0 0
1613 2 8.149967074256695 0.01004456758974613 8.051888332956413 0 0 0
1632 2 10.841621912354192 2.7251671231620587 8.038110597475628 -1 0 0
20 1 4.091841414990326 4.057542103971271 6.644329297218747 0 0 0
1624 1 5.3948789616280735 2.7104487525595387 8.025144994131734 0 0 0
12 1 9.497515833395907 4.0703561642353066 6.6337422186501795 0 0 0
1633 2 2.706129150642205 5.420080922121964 7.993540581260631 0 0 0
1625 2 8.157319214718495 5.447164385270721 8.009510109182429 0 0 0
30 1 1.3526473916405763 6.810084232357777 6.645336830595941 0 0 0
1645 1 0.037106195778920915 8.13816562721424 8.03443022473824 0 0 0
1634 1 5.464956755332737 8.148677763170726 8.017264819961927 0 0 0
21 1 6.768171120240641 6.799069762196077 6.64648560491688 0 0 0
31 2 4.075888777469893 9.49878033652502 6.65920543887265 0 0 0
22 2 9.527402635192253 9.489688166461832 6.654725909227372 0 0 0
23 1 4.084333008764078 1.337773309932278 9.37927612210653 0 0 0
13 1 9.50690203223183 1.3588167327464689 9.432985365043072 0 0 0
32 1 1.339792553267339 4.096919761881569 9.392914254574176 0 0 0
24 2 6.779104279059194 4.047590311370911 9.407080663563432 0 0 0
33 2 4.09695984630012 6.791514342369968 9.382097173018966 0 0 0
25 1 9.55187148502848 6.7931827444313395 9.376966279500374 0 0 0
45 1 1.3376148359477011 9.527077252176486 9.385238355637055 0 0 0
34 1 6.761978713496959 9.509352130530093 9.382741656933167 0 0 0
35 1 1.3272753967196596 1.3647862078526947 12.096557387697016 0 0 0
1635 1 10.86155360858152 0.0023744717286755834 10.753212831019406 -1 0 0
1626 1 5.433922484581747 10.86067286670939 10.736739300689262 0 -1 0
26 1 6.80019181863709 1.3284467880935498 12.082398929202876 0 0 0
36 1 4.053502361859303 4.096662221650023 12.110782801344982 0 0 0
1636 2 2.7100907442879034 2.716944031243535 10.737219516893726 0 0 0
1627 1 8.164021350814382 2.695313965156735 10.777186547062428 0 0 0
27 1 9.531068483620697 4.063357379994885 12.083155870641995 0 0 0
1646 1 0.002642932812639384 5.436130053314331 10.747098305553939 0 0 0
1637 1 5.415176267818356 5.411987987724686 10.768876823130222 0 0 0
46 1 1.335512851018913 6.770382801642518 12.1234948436762 0 0 0
1647 2 2.696594691960855 8.165669180526058 10.768747645130269 0 0 0
37 2 6.772273471660274 6.796613614535729 12.111903615956042 0 0 0
1638 2 8.17067614613243 8.168348842301935 10.723970085112834 0 0 0
47 1 4.110406329806513 9.51423993371981 12.106501991339536 0 0 0
38 1 9.52501560194601 9.522852849788178 12.113545291063422 0 0 0
1639 2 2.721218729051664 0.014063143106499127 13.444446671263165 0 0 0
1628 1 8.13286581533297 10.841813881620677 13.439772296303678 0 -1 0
1648 1 0.017610811238026512 2.7405311520097566 13.444996729858323 0 0 0
1640 2 5.421893788344233 2.6989777171050053 13.442162382742215 0 0 0
1649 1 2.7069976319443523 5.4352239631111745 13.462850359589844 0 0 0
1641 2 8.193044567845389 5.433569466268316 13.476663506219596 0 0 0
1661 1 10.836438105420067 8.12628032060282 13.441648019711328 -1 0 0
1650 1 5.414961605231533 8.159851104529462 13.487012565488666 0 0 0
1651 2 10.85064063478651 0.0006719238610457503 16.22164794406409 -1 0 0
39 1 4.065410426244931 1.3627817481599818 14.830962506784235 0 0 0
1642 2 5.445422602968119 10.854310184250691 16.169186442857416 0 -1 0
28 2 9.489090153210663 1.375944905722812 14.799336115809485 0 0 0
48 1 1.344603547448763 4.096022883237572 14.805818327462497 0 0 0
1652 2 2.706815830800555 2.7338475221336807 16.196815116347796 0 0 0
40 2 6.7869001101920645 4.072964840302433 14.858680513622637 0 0 0
1643 1 8.156200913845998 2.7195879596236012 16.20781075174236 0 0 0
1662 1 0.018807927888643623 5.441976345274621 16.174017131245982 0 0 0
1653 1 5.398053612047537 5.436030818307165 16.197006107727454 0 0 0
49 1 4.086161988237572 6.760887819692989 14.801888456885683 0 0 0
1663 2 2.718012748565703 8.088929283067571 16.196620241521046 0 0 0
1654 1 8.161510470181055 8.158577072701028 16.16914216535445 0 0 0
41 1 9.53490596941813 6.811274919910873 14.851661141395804 0 0 0
61 2 1.340850298142424 9.474413750757956 14.812991713082093 0 0 0
50 1 6.812796825022606 9.48322674164269 14.80245620515378 0 0 0
51 1 1.3605445942385541 1.362763020017882 17.58341311928512 0 0 0
42 2 6.8056963985909835 1.3706211859599424 17.587797575586453 0 0 0
52 1 4.077145538502394 4.098680767545063 17.5707343329551 0 0 0
43 2 9.526884324998669 4.0788246348769714 17.563092177336905 0 0 0
62 1 1.3575888909605656 6.734602601800367 17.567004534084404 0 0 0
53 2 6.791841980042628 6.794024759129331 17.54646779336505 0 0 0
63 2 4.0708588339458345 9.495753794972375 17.59206227125202 0 0 0
54 1 9.46996713319332 9.490940369460066 17.559400761221127 0 0 0
55 1 4.050562424481455 1.3899973616800128 20.244291063353398 0 0 0
1655 1 2.697248353134211 0.021933063277767003 18.932223219317866 0 0 0
1644 1 8.16707137939246 10.83950865125403 18.93611234300479 0 -1 0
44 1 9.537391204287763 1.3345806954040509 20.245225866064924 0 0 0
64 1 1.3669504659421141 4.068476048504293 20.26468900958492 0 0 0
1664 1 0.027582037132260206 2.7040672993325434 18.931252519988448 0 0 0
1656 1 5.4095867636184725 2.7454950533956515 18.922824317526448 0 0 0
56 1 6.7691162550649215 4.094945995006873 20.246946388978444 0 0 0
1665 1 2.718665549060597 5.422298131718256 18.92634989136377 0 0 0
1657 1 8.14763621892136 5.433399458168015 18.931884786087664 0 0 0
1677 2 10.859854949719288 8.13223151370625 18.917494845204747 -1 0 0
65 1 4.071863626171385 6.779402818315213 20.264807525531836 0 0 0
1666 1 5.440092892793441 8.13440279590709 18.951019480794933 0 0 0
57 1 9.4904229165929 6.767161875331414 20.286692619408434 0 0 0
77 1 1.3686461121983087 9.518902988445058 20.2750180324969 0 0 0
66 1 6.815147220077868 9.478762069194016 20.25690889209509 0 0 0
1667 1 0.008592790356074038 10.860886743798591 21.6144670239599 0 -1 0
1658 2 5.414671883297039 10.850981836953235 21.58382818165763 0 -1 0
1668 1 2.7128763019956197 2.723660308822915 21.61457643841526 0 0 0
1659 2 8.172035922335432 2.731414550331515 21.587463641243012 0 0 0
1678 1 10.857341143369865 5.4068677577100726 21.590313506489526 -1 0 0
1669 1 5.421678978634681 5.427441810648859 21.60672566630704 0 0 0
1679 1 2.7277426459883594 8.152843739007272 21.583911785680044 0 0 0
1670 1 8.153882594575816 8.13844075698332 21.61545986623029 0 0 0
67 1 1.355190005546003 1.3663514314248004 22.948026953097703 0 0 0
1671 1 2.7207482463739763 0.022693172293580345 24.278922562888635 0 0 0
58 2 6.793540228958429 1.356861679846927 22.990344841041004 0 0 0
1660 1 8.184463361281708 10.84233101915769 24.322265508414645 0 -1 0
1680 1 0.008914971940088775 2.710141783094031 24.305019142544012 0 0 0
68 1 4.072847106663546 4.074122707389338 22.951054747174773 0 0 0
1672 1 5.407990328361746 2.7396161649552218 24.318433568727855 0 0 0
59 1 9.536352415946594 4.080597858291755 22.970301442332158 0 0 0
1681 1 2.724918933573247 5.402443007370054 24.31358687978631 0 0 0
1673 1 8.139949766876057 5.409180640075751 24.278352089176504 0 0 0
78 2 1.3628411642815865 6.779574528030627 22.945314648156657 0 0 0
1693 1 10.844801424941291 8.161527089949974 24.279958036566086 -1 0 0
1682 2 5.4347879421350065 8.140269282296257 24.29370068690565 0 0 0
69 1 6.80220166573923 6.763287394663571 22.930026670083542 0 0 0
79 1 4.0406317133941245 9.50250247849848 22.94818211809104 0 0 0
70 1 9.504561120743489 9.508010596421975 22.940321106241694 0 0 0
71 1 4.0488175665901505 1.3787646016890962 25.628704662015863 0 0 0
60 1 9.519971399622081 1.3559579183683441 25.64753764433581 0 0 0
80 1 1.362491009209102 4.05783889608934 25.64757073534924 0 0 0
72 1 6.807999310900522 4.058784100610024 25.628004283156177 0 0 0
81 1 4.048280929906828 6.778591122787961 25.64430934846455 0 0 0
73 2 9.499616736904239 6.782369863459787 25.652486690089983 0 0 0
93 2 1.354907835844708 9.514713857988378 25.650535299066192 0 0 0
82 1 6.82794272321152 9.498013586127922 25.650243390331884 0 0 0
83 1 1.3464700382627663 1.3581005569589961 28.35776358262358 0 0 0
1683 1 10.848157158142762 0.020098591707381656 27.020542687993647 -1 0 0
1674 2 5.443611783423903 0.019669723293630217 26.97864542514559 0 0 0
74 1 6.800454066930637 1.3952377238597773 28.343612983224638 0 0 0
84 2 4.052581161927907 4.055469671057696 28.37271614507264 0 0 0
1684 1 2.687531334700537 2.6905470528331077 26.992605711570572 0 0 0
1675 1 8.14692793647918 2.7003133342870465 26.96564302279495 0 0 0
75 2 9.510959466203486 4.057871056610964 28.34585998198249 0 0 0
1694 1 0.03805865113423466 5.420769180754934 26.996732291841596 0 0 0
1685 2 5.451821527573176 5.4409684954485265 26.992540627362402 0 0 0
94 1 1.3639093457752458 6.772723481936515 28.352561139269568 0 0 0
1695 1 2.7049995729072998 8.106793181279503 26.997252986374377 0 0 0
85 1 6.803712152721286 6.806318569415315 28.377944708752842 0 0 0
1686 1 8.140066167621285 8.155358881034386 27.02791495146674 0 0 0
95 2 4.063362036475317 9.478730215977706 28.360858439404744 0 0 0
86 1 9.51981341824666 9.49598977264107 28.340266333785454 0 0 0
1687 1 2.699801193982267 0.011425407650967006 29.690243702416875 0 0 0
1676 2 8.15082301929424 0.00656551865317487 29.706629204657972 0 0 0
1696 1 0.01739414040902671 2.7014729293811146 29.72675135464639 0 0 0
1688 1 5.465780786763049 2.716990968420374 29.716309592864466 0 0 0
1697 1 2.694009195955876 5.442800276540545 29.73305930075968 0 0 0
1689 1 8.120220160148524 5.411893942773733 29.699705154785494 0 0 0
1709 1 0.006674559008364857 8.136740659398434 29.66429180887962 0 0 0
1698 1 5.434484515970271 8.12108112709471 29.73022185647555 0 0 0
1699 1 10.85756545441005 0.030211236934428818 32.410128788544625 -1 0 0
87 2 4.077623698120943 1.3557618465156445 31.06392314634422 0 0 0
1690 1 5.444988932702339 10.848111562406315 32.42882813300925 0 -1 0
76 1 9.513566476533926 1.3803005831306645 31.077366664549604 0 0 0
96 1 1.3539222050852266 4.072629817846098 31.05953508175975 0 0 0
1700 1 2.687139583464484 2.7221886985708323 32.40413849318763 0 0 0
88 1 6.795936125192493 4.068790924731438 31.067955593485756 0 0 0
1691 1 8.144575463549122 2.715430249105426 32.41560530103002 0 0 0
1710 1 0.02006365108095938 5.405989659742113 32.42648721003577 0 0 0
1701 1 5.443572734047501 5.43613721893306 32.38957419769546 0 0 0
97 1 4.07250800770539 6.776367082208237 31.06270943931286 0 0 0
1711 1 2.7334309914698207 8.118733477726815 32.423541265882015 0 0 0
1702 2 8.116748708695637 8.139234091946324 32.41160032179517 0 0 0
89 2 9.5218720837475 6.760465941515816 31.038802826978863 0 0 0
109 2 1.3558229494943155 9.495617851173778 31.061082442610697 0 0 0
98 1 6.75382467025855 9.50699276715897 31.053396463188424 0 0 0
99 1 1.3372554331814768 1.381762122764726 33.73969959226591 0 0 0
90 1 6.79742909173417 1.349094276732492 33.75798201888738 0 0 0
100 2 4.073402574091269 4.075998529665538 33.75881344395975 0 0 0
91 1 9.503920929766497 4.067314323423481 33.750760006963745 0 0 0
110 1 1.3583074948088958 6.781330440102305 33.757857678005756 0 0 0
101 1 6.766149118984529 6.761240977607205 33.777124859894705 0 0 0
111 1 4.097821864494416 9.477013646713603 33.74120707097335 0 0 0
102 2 9.51173609436662 9.522043633614306 33.78708678667227 0 0 0
103 2 4.080777486336165 1.3752606949848152 36.48612574603126 0 0 0
1703 2 2.7157479108341778 10.860953992453979 35.077085323807275 0 -1 0
1692 1 8.113394247858105 0.004004088010408636 35.13936457263897 0 0 0
92 2 9.502881617085592 1.3624059885318551 36.49071313714336 0 0 0
112 2 1.348227556278127 4.0670677164575695 36.48510636737648 0 0 0
1712 1 10.851454771343617 2.716657386212357 35.09070047694476 -1 0 0
1704 1 5.455631863188524 2.699662148169936 35.10058415008062 0 0 0
104 2 6.820829684103786 4.051490418404915 36.47142374554256 0 0 0
1713 1 2.6987120493771934 5.447176636094299 35.11501030105974 0 0 0
1705 1 8.152506862796557 5.41920928558643 35.081355799783736 0 0 0
1725 1 0.01502259251095571 8.119684475760161 35.114332309484745 0 0 0
113 2 4.066320100858962 6.812139694748401 36.47380655143228 0 0 0
1714 1 5.450888448219861 8.155665745282302 35.103873651426696 0 0 0
105 2 9.492481868045491 6.775260773816569 36.47942407057078 0 0 0
125 2 1.3492386095744533 9.493872578755369 36.49353054587584 0 0 0
114 1 6.797056626747933 9.481040451578975 36.46914642441678 0 0 0
1715 1 0.016742975884453278 0.015943916855320005 37.86279982725789 0 0 0
1706 2 5.454632114594007 10.837663419532628 37.8722292676719 0 -1 0
1716 1 2.7068389291779833 2.7094000964724456 37.87212346930549 0 0 0
1707 1 8.1589394515021 2.7146686412402166 37.8885784821276 0 0 0
1726 1 10.835452924466356 5.408131023380624 37.86367533524885 -1 0 0
1717 2 5.440899476677491 5.4250893213750215 37.872094467209955 0 0 0
1727 1 2.7280751098485254 8.167793577325053 37.866864451484595 0 0 0
1718 1 8.11880728704967 8.144095240819535 37.83997620784759 0 0 0
115 1 1.366469973388341 1.3524878206033704 39.21425631437909 0 0 0
1719 1 2.7142366174791914 0.0005169535108016992 40.56581694062743 0 0 0
106 1 6.809335776930018 1.3700528283517917 39.22847392944783 0 0 0
1708 1 8.148842930215318 0.027670715288526368 40.569159769518755 0 0 0
1728 1 10.85320916203557 2.6874195580840374 40.548975349920525 -1 0 0
116 1 4.079035306454782 4.026199912896087 39.20696604040634 0 0 0
1720 1 5.409950392219265 2.679510570091623 40.552770936622316 0 0 0
107 1 9.508192677671245 4.062924124899225 39.2231231157357 0 0 0
1729 2 2.7496457976758153 5.415212368687932 40.57394863950575 0 0 0
1721 1 8.17169001758604 5.446769302632668 40.54426508865808 0 0 0
126 2 1.3438367105254079 6.797288853907964 39.203366262323755 0 0 0
1741 1 10.857338962918572 8.15279713876755 40.595086673079884 -1 0 0
1730 1 5.422874793118642 8.131448996613367 40.55181891681002 0 0 0
117 1 6.8089519239740355 6.805590209661327 39.22595927286036 0 0 0
127 1 4.060588484186493 9.490729773879773 39.23778484071373 0 0 0
118 2 9.496934582704426 9.506229903153576 39.20742920093675 0 0 0
119 1 4.070444105651317 1.3398657873033186 41.91979212887811 0 0 0
108 1 9.538140485605084 1.3262496963237713 41.90530949966787 0 0 0
128 2 1.3480880026963977 4.036373603128763 41.94803243110181 0 0 0
120 2 6.771836988683861 4.083112203700006 41.89005271105696 0 0 0
129 1 4.111782467669599 6.790746742810928 41.92838165895762 0 0 0
121 1 9.521761738030692 6.7718199871485 41.90807690463154 0 0 0
141 1 1.350662857993148 9.522202133619897 41.90343268168982 0 0 0
130 2 6.771570622957207 9.51728325947654 41.91514209363016 0 0 0
131 1 1.3825481922184566 1.3083768701483418 44.61632972392214 0 0 0
1731 1 0.01092700574613563 10.84876777890481 43.271234228896816 0 -1 0
1722 1 5.404611539791688 0.006456339347556502 43.2947445784405 0 0 0
122 1 6.798279077996783 1.3073685505259838 44.62992569630221 0 0 0
132 1 4.084927055649329 4.061216434525986 44.593048101365014 0 0 0
1732 1 2.7366392747058574 2.6707152598174893 43.295495201151894 0 0 0
1723 2 8.150234495049558 2.6766273061527737 43.26135426453861 0 0 0
123 2 9.498127904754963 4.098894760618644 44.64174509213198 0 0 0
1742 1 0.001902722210411319 5.457077511719166 43.27865840561458 0 0 0
1733 1 5.429141408876464 5.442511169554726 43.28834644005165 0 0 0
142 1 1.3279073337023193 6.803541789489538 44.6331648769497 0 0 0
1743 2 2.7192265900621946 8.156165095792502 43.274099182131806 0 0 0
133 1 6.772926622942628 6.7665545812405545 44.657987883094535 0 0 0
1734 2 8.164017843259675 8.12652633453867 43.300317355848904 0 0 0
143 1 4.089659618499699 9.508422844822778 44.65326753048134 0 0 0
134 1 9.535611372021846 9.51647502544739 44.64777034570258 0 0 0
1735 1 2.7046581377205268 10.82368703846677 45.98197351224867 0 -1 0
1724 1 8.169462328449404 10.856460408286907 45.97864331753989 0 -1 0
1744 2 0.0018843644947094838 2.6589299500796972 45.98898819777127 0 0 0
1736 2 5.461845279831902 2.718093794138438 45.977911421478886 0 0 0
1745 2 2.737267606474235 5.442667622108327 45.963456029871445 0 0 0
1737 1 8.128188855680204 5.451104127436967 46.020477582096426 0 0 0
1757 1 10.851526178278585 8.143023122495592 45.99563921411133 -1 0 0
1746 1 5.4312315134258515 8.137509153679114 45.978432530278454 0 0 0
1747 2 10.852127996350733 10.844046729560802 48.72607157613317 -1 -1 0
135 2 4.080505056627507 1.3151870411475117 47.35826851891265 0 0 0
1738 1 5.4737933260910285 0.0013931811642341587 48.73560232805634 0 0 0
124 1 9.46726892624921 1.339429613691037 47.3666390004988 0 0 0
144 2 1.3630756318037471 4.062261099170584 47.36075099455997 0 0 0
1748 2 2.7229296240028127 2.6966168673765263 48.771260961136996 0 0 0
136 1 6.831944181840933 4.064817274883946 47.36683107649354 0 0 0
1739 1 8.149394362123143 2.7022186282227136 48.723182085715834 0 0 0
1758 2 10.811263398647995 5.426422697427282 48.72315489367848 -1 0 0
1749 2 5.454745650941659 5.429060690787358 48.72865392963184 0 0 0
145 1 4.107903005955781 6.793476072491999 47.3351880969978 0 0 0
1759 2 2.721625012259344 8.143132359013133 48.688905760284584 0 0 0
1750 1 8.166577205142596 8.128600126862949 48.73766447014281 0 0 0
137 1 9.481066824843442 6.812476922297794 47.34020774442544 0 0 0
157 1 1.3455256992880709 9.494275166219898 47.32282151210132 0 0 0
146 2 6.809868939267972 9.488902946906983 47.353800760415474 0 0 0
147 1 1.3379048024465154 1.3446028005581034 50.123968339927245 0 0 0
138 1 6.80861980191478 1.3544265611205346 50.072874128493225 0 0 0
148 1 4.090690896429442 4.072344934470687 50.11423308052386 0 0 0
139 1 9.48070970189626 4.037815860283146 50.09647624657405 0 0 0
158 2 1.3509505487810058 6.779661855392163 50.11849238916472 0 0 0
149 1 6.828298282212756 6.79338461258547 50.097195697044036 0 0 0
159 2 4.098928903033584 9.51353664264694 50.09794417633032 0 0 0
150 1 9.489410379105738 9.476558390207593 50.098126151383546 0 0 0
151 2 4.0746848948315915 1.3593835653351285 52.797250295218475 0 0 0
1751 1 2.6899096636992077 10.854841350665213 51.447861198452436 0 -1 0
1740 1 8.165117107455252 0.009928036274665574 51.41506423802785 0 0 0
140 1 9.491918082137024 1.3612495358471386 52.77376988312504 0 0 0
160 1 1.3532063922688173 4.056566930426806 52.786415113021164 0 0 0
1760 1 10.851510763581945 2.712700392831511 51.44507416673522 -1 0 0
1752 1 5.447971492407171 2.6988678695729966 51.40462316849903 0 0 0
152 2 6.821469817331564 4.0465146226086395 52.777059549116586 0 0 0
1761 1 2.7297962723329032 5.395258109911468 51.46086375356386 0 0 0
1753 1 8.180805053183411 5.439203212908491 51.429020314997196 0 0 0
1773 1 10.833891046539806 8.154864073955002 51.465110689584385 -1 0 0
161 1 4.083232628149587 6.773557685937225 52.75602948755648 0 0 0
1762 1 5.4544682839636796 8.11199818244744 51.43992784932136 0 0 0
153 1 9.509837015489635 6.780257415044233 52.80216089744763 0 0 0
173 1 1.3395507927836796 9.504721528560683 52.76974589288607 0 0 0
162 2 6.814263672961567 9.497965401566443 52.800303420837025 0 0 0
1763 2 10.852034229131585 0.0031673699733934173 54.157341657806974 -1 0 0
1754 1 5.464825526900756 0.021091456583911525 54.168447728178336 0 0 0
1764 1 2.683776143744455 2.7158954127889032 54.15533849727803 0 0 0
1755 1 8.153521471206387 2.6653448065992373 54.157904323348376 0 0 0
1774 1 10.861668775277424 5.409734808728201 54.11452427174682 -1 0 0
1765 2 5.440094825420138 5.440886926420855 54.156499264248545 0 0 0
1775 2 2.7154109595540197 8.13745631990231 54.111976283921 0 0 0
1766 1 8.178847721020485 8.123369926880855 54.17111874935941 0 0 0
163 1 1.3541819398450354 1.3824932872624274 55.519747948714716 0 0 0
1767 2 2.701325157376408 0.02132198546978709 56.90771554934877 0 0 0
154 1 6.800098078882659 1.3564304966064906 55.526927436971455 0 0 0
1756 1 8.150010640351148 0.006509323722689955 56.85754204020806 0 0 0
1776 1 0.03999232191351592 2.717289574212976 56.887735148307954 0 0 0
164 2 4.063109486033009 4.045107452177302 55.54820304353691 0 0 0
1768 1 5.458579489480612 2.6824989739683627 56.89896648186585 0 0 0
155 2 9.523117899182155 4.044270105431794 55.50509049215168 0 0 0
1777 1 2.7097281715055983 5.41406649393403 56.92162261011174 0 0 0
1769 2 8.141846619870579 5.426061128567358 56.90968290808139 0 0 0
174 2 1.3524247778756058 6.749918020374562 55.518798325789014 0 0 0
1789 2 10.8435401794369 8.153580759847928 56.91147636683732 -1 0 0
1778 2 5.43441349476773 8.107687291909846 56.896250355107114 0 0 0
165 1 6.819299985434462 6.794353566506167 55.51156246078994 0 0 0
175 2 4.0871528616752695 9.516974781132198 55.50716972767073 0 0 0
166 1 9.477750879393017 9.501984133708323 55.52447463021998 0 0 0
167 1 4.104224073775089 1.3638274198950688 58.25645140235158 0 0 0
156 2 9.520475059381761 1.3564765118186368 58.241874966011586 0 0 0
176 1 1.3449820808097357 4.079995223698269 58.24535766428958 0 0 0
168 1 6.767723765150919 4.047451448603516 58.2597224194034 0 0 0
177 1 4.048950154789535 6.759634593146153 58.26474445814588 0 0 0
169 1 9.510910977182803 6.77332887256041 58.29475341296057 0 0 0
189 1 1.3596432766009652 9.502063973688221 58.28782443246772 0 0 0
178 2 6.809551933282157 9.517316088696097 58.263964522842485 0 0 0
179 1 1.3431075423754757 1.345753353784318 60.98230100129602 0 0 0
1779 1 0.016201450941896626 10.85292119740103 59.627125785426884 0 -1 0
1770 1 5.408533884227122 0.0008048735838908935 59.614647318546865 0 0 0
170 2 6.794605168385758 1.3651833276689131 60.96689618237881 0 0 0
180 1 4.081385169486108 4.090378031452471 60.982630533506544 0 0 0
1780 2 2.715052453604435 2.717793180628276 59.617551630894845 0 0 0
1771 1 8.156248903112825 2.739110448288531 59.59906220574768 0 0 0
171 1 9.54486978030295 4.038305813941717 60.948055737856784 0 0 0
1790 1 0.010377989678257149 5.414082535454956 59.61078969627086 0 0 0
1781 1 5.404132636110233 5.398928235884439 59.580875328459506 0 0 0
190 1 1.3825417424254274 6.756582435122084 60.93634473901529 0 0 0
1791 1 2.7165301690815555 8.132849394381944 59.60306536844198 0 0 0
181 2 6.782897757111442 6.770660644969069 60.92865602742278 0 0 0
1782 1 8.182339708255947 8.148998588921122 59.61305837500909 0 0 0
191 1 4.041790949538953 9.517847085700716 60.93678809338546 0 0 0
182 1 9.500306968402061 9.52146110122202 60.94573482680771 0 0 0
1783 1 2.720923164996226 0.008869725806348703 62.29477299754199 0 0 0
1772 1 8.190059452459172 0.0065635266101982575 62.31800160660239 0 0 0
1792 1 0.011557340701156592 2.7058651118282326 62.33046140221789 0 0 0
1784 1 5.426992703575681 2.7441386063003477 62.319531197844746 0 0 0
1793 1 2.705715141328943 5.416779680653758 62.314749072416184 0 0 0
1785 2 8.156536538719891 5.37625469576691 62.32057830785474 0 0 0
1805 2 0.010759782941849953 8.141076372439688 62.28314860513553 0 0 0
1794 2 5.392819756722226 8.149845396882501 62.31883919664711 0 0 0
1795 1 10.840297691993436 0.01756009029695147 65.0511938323232 -1 0 0
183 2 4.068456423837034 1.3736156305678666 63.68196692536578 0 0 0
1786 1 5.455348738976452 0.03434125288083822 65.05403629936755 0 0 0
172 1 9.51841387304041 1.3562786058873988 63.673262254334034 0 0 0
192 1 1.3658251947529405 4.065424889281128 63.668784905795235 0 0 0
1796 1 2.6885143255023607 2.7294197323988527 65.05283633852517 0 0 0
184 1 6.79217675430817 4.022780821489529 63.6867131420913 0 0 0
1787 1 8.145230809922797 2.676031669220168 65.01657201109386 0 0 0
1806 1 0.05151428653170523 5.4137520251994795 65.04218234753142 0 0 0
1797 2 5.427986076731758 5.415252193263625 65.02939625891035 0 0 0
193 1 4.030638390267453 6.766614657204354 63.6720728153593 0 0 0
1807 1 2.7100067632768643 8.11184620353257 65.02943845669749 0 0 0
1798 1 8.165567986797132 8.154172817187968 65.08320467239649 0 0 0
185 2 9.516623541305803 6.776578416498976 63.713726500716646 0 0 0
205 2 1.3708056265227964 9.524903575494298 63.69021295707269 0 0 0
194 2 6.816266486545775 9.522108108240289 63.698060832308656 0 0 0
195 1 1.32492830165067 1.3759910838723823 66.3764052537336 0 0 0
186 1 6.813037681115607 1.3592363424750504 66.40575731548414 0 0 0
196 1 4.072761634651975 4.0410224400805355 66.39946439317512 0 0 0
187 2 9.5280379199368 4.036139671427343 66.37840031346663 0 0 0
206 1 1.3459543359632087 6.80465504963608 66.38956064700466 0 0 0
197 1 6.803194619299883 6.788577499210269 66.38060625588408 0 0 0
207 2 4.07349825382079 9.500076096566463 66.36665559326782 0 0 0
198 1 9.517103176832627 9.516483750605538 66.41136234630319 0 0 0
199 2 4.088517760164522 1.3776635347947408 69.10282910290651 0 0 0
1799 2 2.6681791360442273 10.861621961770693 67.74908671838695 0 -1 0
1788 1 8.168452155305213 0.01162188315604769 67.75247059708732 0 0 0
188 1 9.50933276432061 1.3454502947782538 69.12294329756409 0 0 0
208 1 1.3341498928698103 4.0525657519381 69.09520176629488 0 0 0
1808 1 0.0044999781079025705 2.678377550738134 67.77526645462586 0 0 0
1800 1 5.464448329876009 2.7282214440743737 67.73183465706899 0 0 0
200 1 6.794809033616013 4.041866942890566 69.12551328883217 0 0 0
1809 2 2.711551251835283 5.429558320922744 67.75521739776379 0 0 0
1801 2 8.145369057786354 5.428399066224254 67.76331390506085 0 0 0
1821 1 0.0049099306222642174 8.153893164696685 67.74953700196139 0 0 0
209 1 4.064962960883995 6.799001196723428 69.13542769156041 0 0 0
1810 2 5.455540693917974 8.135531948217839 67.76958225370612 0 0 0
201 1 9.52449882813533 6.805085598873221 69.09671801517902 0 0 0
221 1 1.329421225808696 9.487274680223154 69.13816580953508 0 0 0
210 1 6.834206693542583 9.520080555229471 69.09708393977395 0 0 0
211 1 1.3086922778986045 1.3590236430894072 71.83606635645312 0 0 0
1811 1 10.854100071166153 10.857753673818879 70.47708069393198 -1 -1 0
1802 2 5.464665518205687 10.84633887816174 70.48212874551342 0 -1 0
202 1 6.821511535574872 1.3749495446094333 71.81752192093663 0 0 0
212 1 4.057254543965922 4.100328783130448 71.87034433515966 0 0 0
1812 2 2.69311848582932 2.73781025161805 70.50269677276192 0 0 0
1803 1 8.16343887562943 2.706648084755175 70.46432036876008 0 0 0
203 1 9.482268601415603 4.048893326244656 71.84540876773161 0 0 0
1822 2 10.844618825336001 5.408859425861074 70.4664329948705 -1 0 0
1813 2 5.438892840189162 5.431959465948422 70.49225091249286 0 0 0
222 2 1.3775747138145609 6.791651807925153 71.84969676066883 0 0 0
1823 1 2.725045816676155 8.162166948976894 70.46250986313214 0 0 0
213 1 6.804358129621998 6.791121276572089 71.87424354336413 0 0 0
1814 2 8.167108423510387 8.15011074326101 70.48617513472571 0 0 0
223 1 4.0917664043686965 9.466535113064475 71.82271200099474 0 0 0
214 1 9.540410834878056 9.508541570313016 71.84848262981212 0 0 0
1815 2 2.7162149859004305 10.85217103610213 73.158755948567 0 -1 0
1804 2 8.152732468040021 0.004795573878224619 73.205756219307 0 0 0
1824 1 10.852222583404853 2.72393741190811 73.19839222430778 -1 0 0
1816 2 5.4678250695138475 2.739835588701475 73.19018836119616 0 0 0
1825 1 2.7254482928343386 5.426358321141833 73.2357282375341 0 0 0
1817 1 8.163157426885448 5.425251915766322 73.18942211330649 0 0 0
1837 1 10.835014348979074 8.126404959052945 73.19816660625006 -1 0 0
1826 1 5.434612215425604 8.14379383507912 73.19654505464256 0 0 0
1827 2 10.832844853746233 0.007591139210439258 75.91985717842812 -1 0 0
215 2 4.085101342345012 1.3576081198962933 74.58177623232072 0 0 0