LAMMPS DATA file generated by GEO Finder

800 atoms

2 atom types

0.0 5.431000 xlo xhi
0.0 5.431000 ylo yhi
0.0 543.100000 zlo zhi

Masses

1 28.0855
2 72.64

Atoms

1 1 0.000000 0.000000 0.000000
2 1 2.715500 2.715500 0.000000
3 1 2.715500 0.000000 2.715500
4 1 0.000000 2.715500 2.715500
5 1 0.000000 0.000000 5.431000
6 1 2.715500 2.715500 5.431000
7 1 2.715500 0.000000 8.146500
8 1 0.000000 2.715500 8.146500
9 1 0.000000 0.000000 10.862000
10 1 2.715500 2.715500 10.862000
11 1 2.715500 0.000000 13.577500
12 1 0.000000 2.715500 13.577500
13 1 0.000000 0.000000 16.293000
14 1 2.715500 2.715500 16.293000
15 1 2.715500 0.000000 19.008500
16 1 0.000000 2.715500 19.008500
17 1 0.000000 0.000000 21.724000
18 1 2.715500 2.715500 21.724000
19 1 2.715500 0.000000 24.439500
20 1 0.000000 2.715500 24.439500
21 1 0.000000 0.000000 27.155000
22 1 2.715500 2.715500 27.155000
23 1 2.715500 0.000000 29.870500
24 1 0.000000 2.715500 29.870500
25 1 0.000000 0.000000 32.586000
26 1 2.715500 2.715500 32.586000
27 1 2.715500 0.000000 35.301500
28 1 0.000000 2.715500 35.301500
29 1 0.000000 0.000000 38.017000
30 1 2.715500 2.715500 38.017000
31 1 2.715500 0.000000 40.732500
32 1 0.000000 2.715500 40.732500
33 1 0.000000 0.000000 43.448000
34 1 2.715500 2.715500 43.448000
35 1 2.715500 0.000000 46.163500
36 1 0.000000 2.715500 46.163500
37 1 0.000000 0.000000 48.879000
38 1 2.715500 2.715500 48.879000
39 1 2.715500 0.000000 51.594500
40 1 0.000000 2.715500 51.594500
41 1 0.000000 0.000000 54.310000
42 1 2.715500 2.715500 54.310000
43 1 2.715500 0.000000 57.025500
44 1 0.000000 2.715500 57.025500
45 1 0.000000 0.000000 59.741000
46 1 2.715500 2.715500 59.741000
47 1 2.715500 0.000000 62.456500
48 1 0.000000 2.715500 62.456500
49 1 0.000000 0.000000 65.172000
50 1 2.715500 2.715500 65.172000
51 1 2.715500 0.000000 67.887500
52 1 0.000000 2.715500 67.887500
53 1 0.000000 0.000000 70.603000
54 1 2.715500 2.715500 70.603000
55 1 2.715500 0.000000 73.318500
56 1 0.000000 2.715500 73.318500
57 1 0.000000 0.000000 76.034000
58 1 2.715500 2.715500 76.034000
59 1 2.715500 0.000000 78.749500
60 1 0.000000 2.715500 78.749500
61 1 0.000000 0.000000 81.465000
62 1 2.715500 2.715500 81.465000
63 1 2.715500 0.000000 84.180500
64 1 0.000000 2.715500 84.180500
65 1 0.000000 0.000000 86.896000
66 1 2.715500 2.715500 86.896000
67 1 2.715500 0.000000 89.611500
68 1 0.000000 2.715500 89.611500
69 1 0.000000 0.000000 92.327000
70 1 2.715500 2.715500 92.327000
71 1 2.715500 0.000000 95.042500
72 1 0.000000 2.715500 95.042500
73 1 0.000000 0.000000 97.758000
74 1 2.715500 2.715500 97.758000
75 1 2.715500 0.000000 100.473500
76 1 0.000000 2.715500 100.473500
77 1 0.000000 0.000000 103.189000
78 1 2.715500 2.715500 103.189000
79 1 2.715500 0.000000 105.904500
80 1 0.000000 2.715500 105.904500
81 1 0.000000 0.000000 108.620000
82 1 2.715500 2.715500 108.620000
83 1 2.715500 0.000000 111.335500
84 1 0.000000 2.715500 111.335500
85 1 0.000000 0.000000 114.051000
86 1 2.715500 2.715500 114.051000
87 1 2.715500 0.000000 116.766500
88 1 0.000000 2.715500 116.766500
89 1 0.000000 0.000000 119.482000
90 1 2.715500 2.715500 119.482000
91 1 2.715500 0.000000 122.197500
92 1 0.000000 2.715500 122.197500
93 1 0.000000 0.000000 124.913000
94 1 2.715500 2.715500 124.913000
95 1 2.715500 0.000000 127.628500
96 1 0.000000 2.715500 127.628500
97 1 0.000000 0.000000 130.344000
98 1 2.715500 2.715500 130.344000
99 1 2.715500 0.000000 133.059500
100 1 0.000000 2.715500 133.059500
101 1 0.000000 0.000000 135.775000
102 1 2.715500 2.715500 135.775000
103 1 2.715500 0.000000 138.490500
104 1 0.000000 2.715500 138.490500
105 1 0.000000 0.000000 141.206000
106 1 2.715500 2.715500 141.206000
107 1 2.715500 0.000000 143.921500
108 1 0.000000 2.715500 143.921500
109 1 0.000000 0.000000 146.637000
110 1 2.715500 2.715500 146.637000
111 1 2.715500 0.000000 149.352500
112 1 0.000000 2.715500 149.352500
113 1 0.000000 0.000000 152.068000
114 1 2.715500 2.715500 152.068000
115 1 2.715500 0.000000 154.783500
116 1 0.000000 2.715500 154.783500
117 1 0.000000 0.000000 157.499000
118 1 2.715500 2.715500 157.499000
119 1 2.715500 0.000000 160.214500
120 1 0.000000 2.715500 160.214500
121 1 0.000000 0.000000 162.930000
122 1 2.715500 2.715500 162.930000
123 1 2.715500 0.000000 165.645500
124 1 0.000000 2.715500 165.645500
125 1 0.000000 0.000000 168.361000
126 1 2.715500 2.715500 168.361000
127 1 2.715500 0.000000 171.076500
128 1 0.000000 2.715500 171.076500
129 1 0.000000 0.000000 173.792000
130 1 2.715500 2.715500 173.792000
131 1 2.715500 0.000000 176.507500
132 1 0.000000 2.715500 176.507500
133 1 0.000000 0.000000 179.223000
134 1 2.715500 2.715500 179.223000
135 1 2.715500 0.000000 181.938500
136 1 0.000000 2.715500 181.938500
137 1 0.000000 0.000000 184.654000
138 1 2.715500 2.715500 184.654000
139 1 2.715500 0.000000 187.369500
140 1 0.000000 2.715500 187.369500
141 1 0.000000 0.000000 190.085000
142 1 2.715500 2.715500 190.085000
143 1 2.715500 0.000000 192.800500
144 1 0.000000 2.715500 192.800500
145 1 0.000000 0.000000 195.516000
146 1 2.715500 2.715500 195.516000
147 1 2.715500 0.000000 198.231500
148 1 0.000000 2.715500 198.231500
149 1 0.000000 0.000000 200.947000
150 1 2.715500 2.715500 200.947000
151 1 2.715500 0.000000 203.662500
152 1 0.000000 2.715500 203.662500
153 1 0.000000 0.000000 206.378000
154 1 2.715500 2.715500 206.378000
155 1 2.715500 0.000000 209.093500
156 1 0.000000 2.715500 209.093500
157 1 0.000000 0.000000 211.809000
158 1 2.715500 2.715500 211.809000
159 1 2.715500 0.000000 214.524500
160 1 0.000000 2.715500 214.524500
161 1 0.000000 0.000000 217.240000
162 1 2.715500 2.715500 217.240000
163 1 2.715500 0.000000 219.955500
164 1 0.000000 2.715500 219.955500
165 1 0.000000 0.000000 222.671000
166 1 2.715500 2.715500 222.671000
167 1 2.715500 0.000000 225.386500
168 1 0.000000 2.715500 225.386500
169 1 0.000000 0.000000 228.102000
170 1 2.715500 2.715500 228.102000
171 1 2.715500 0.000000 230.817500
172 1 0.000000 2.715500 230.817500
173 1 0.000000 0.000000 233.533000
174 1 2.715500 2.715500 233.533000
175 1 2.715500 0.000000 236.248500
176 1 0.000000 2.715500 236.248500
177 1 0.000000 0.000000 238.964000
178 1 2.715500 2.715500 238.964000
179 1 2.715500 0.000000 241.679500
180 1 0.000000 2.715500 241.679500
181 1 0.000000 0.000000 244.395000
182 1 2.715500 2.715500 244.395000
183 1 2.715500 0.000000 247.110500
184 1 0.000000 2.715500 247.110500
185 1 0.000000 0.000000 249.826000
186 1 2.715500 2.715500 249.826000
187 1 2.715500 0.000000 252.541500
188 1 0.000000 2.715500 252.541500
189 1 0.000000 0.000000 255.257000
190 1 2.715500 2.715500 255.257000
191 1 2.715500 0.000000 257.972500
192 1 0.000000 2.715500 257.972500
193 1 0.000000 0.000000 260.688000
194 1 2.715500 2.715500 260.688000
195 1 2.715500 0.000000 263.403500
196 1 0.000000 2.715500 263.403500
197 1 0.000000 0.000000 266.119000
198 1 2.715500 2.715500 266.119000
199 1 2.715500 0.000000 268.834500
200 1 0.000000 2.715500 268.834500
201 1 0.000000 0.000000 271.550000
202 1 2.715500 2.715500 271.550000
203 2 2.715500 0.000000 274.265500
204 2 0.000000 2.715500 274.265500
205 2 0.000000 0.000000 276.981000
206 2 2.715500 2.715500 276.981000
207 2 2.715500 0.000000 279.696500
208 2 0.000000 2.715500 279.696500
209 2 0.000000 0.000000 282.412000
210 2 2.715500 2.715500 282.412000
211 2 2.715500 0.000000 285.127500
212 2 0.000000 2.715500 285.127500
213 2 0.000000 0.000000 287.843000
214 2 2.715500 2.715500 287.843000
215 2 2.715500 0.000000 290.558500
216 2 0.000000 2.715500 290.558500
217 2 0.000000 0.000000 293.274000
218 2 2.715500 2.715500 293.274000
219 2 2.715500 0.000000 295.989500
220 2 0.000000 2.715500 295.989500
221 2 0.000000 0.000000 298.705000
222 2 2.715500 2.715500 298.705000
223 2 2.715500 0.000000 301.420500
224 2 0.000000 2.715500 301.420500
225 2 0.000000 0.000000 304.136000
226 2 2.715500 2.715500 304.136000
227 2 2.715500 0.000000 306.851500
228 2 0.000000 2.715500 306.851500
229 2 0.000000 0.000000 309.567000
230 2 2.715500 2.715500 309.567000
231 2 2.715500 0.000000 312.282500
232 2 0.000000 2.715500 312.282500
233 2 0.000000 0.000000 314.998000
234 2 2.715500 2.715500 314.998000
235 2 2.715500 0.000000 317.713500
236 2 0.000000 2.715500 317.713500
237 2 0.000000 0.000000 320.429000
238 2 2.715500 2.715500 320.429000
239 2 2.715500 0.000000 323.144500
240 2 0.000000 2.715500 323.144500
241 2 0.000000 0.000000 325.860000
242 2 2.715500 2.715500 325.860000
243 2 2.715500 0.000000 328.575500
244 2 0.000000 2.715500 328.575500
245 2 0.000000 0.000000 331.291000
246 2 2.715500 2.715500 331.291000
247 2 2.715500 0.000000 334.006500
248 2 0.000000 2.715500 334.006500
249 2 0.000000 0.000000 336.722000
250 2 2.715500 2.715500 336.722000
251 2 2.715500 0.000000 339.437500
252 2 0.000000 2.715500 339.437500
253 2 0.000000 0.000000 342.153000
254 2 2.715500 2.715500 342.153000
255 2 2.715500 0.000000 344.868500
256 2 0.000000 2.715500 344.868500
257 2 0.000000 0.000000 347.584000
258 2 2.715500 2.715500 347.584000
259 2 2.715500 0.000000 350.299500
260 2 0.000000 2.715500 350.299500
261 2 0.000000 0.000000 353.015000
262 2 2.715500 2.715500 353.015000
263 2 2.715500 0.000000 355.730500
264 2 0.000000 2.715500 355.730500
265 2 0.000000 0.000000 358.446000
266 2 2.715500 2.715500 358.446000
267 2 2.715500 0.000000 361.161500
268 2 0.000000 2.715500 361.161500
269 2 0.000000 0.000000 363.877000
270 2 2.715500 2.715500 363.877000
271 2 2.715500 0.000000 366.592500
272 2 0.000000 2.715500 366.592500
273 2 0.000000 0.000000 369.308000
274 2 2.715500 2.715500 369.308000
275 2 2.715500 0.000000 372.023500
276 2 0.000000 2.715500 372.023500
277 2 0.000000 0.000000 374.739000
278 2 2.715500 2.715500 374.739000
279 2 2.715500 0.000000 377.454500
280 2 0.000000 2.715500 377.454500
281 2 0.000000 0.000000 380.170000
282 2 2.715500 2.715500 380.170000
283 2 2.715500 0.000000 382.885500
284 2 0.000000 2.715500 382.885500
285 2 0.000000 0.000000 385.601000
286 2 2.715500 2.715500 385.601000
287 2 2.715500 0.000000 388.316500
288 2 0.000000 2.715500 388.316500
289 2 0.000000 0.000000 391.032000
290 2 2.715500 2.715500 391.032000
291 2 2.715500 0.000000 393.747500
292 2 0.000000 2.715500 393.747500
293 2 0.000000 0.000000 396.463000
294 2 2.715500 2.715500 396.463000
295 2 2.715500 0.000000 399.178500
296 2 0.000000 2.715500 399.178500
297 2 0.000000 0.000000 401.894000
298 2 2.715500 2.715500 401.894000
299 2 2.715500 0.000000 404.609500
300 2 0.000000 2.715500 404.609500
301 2 0.000000 0.000000 407.325000
302 2 2.715500 2.715500 407.325000
303 2 2.715500 0.000000 410.040500
304 2 0.000000 2.715500 410.040500
305 2 0.000000 0.000000 412.756000
306 2 2.715500 2.715500 412.756000
307 2 2.715500 0.000000 415.471500
308 2 0.000000 2.715500 415.471500
309 2 0.000000 0.000000 418.187000
310 2 2.715500 2.715500 418.187000
311 2 2.715500 0.000000 420.902500
312 2 0.000000 2.715500 420.902500
313 2 0.000000 0.000000 423.618000
314 2 2.715500 2.715500 423.618000
315 2 2.715500 0.000000 426.333500
316 2 0.000000 2.715500 426.333500
317 2 0.000000 0.000000 429.049000
318 2 2.715500 2.715500 429.049000
319 2 2.715500 0.000000 431.764500
320 2 0.000000 2.715500 431.764500
321 2 0.000000 0.000000 434.480000
322 2 2.715500 2.715500 434.480000
323 2 2.715500 0.000000 437.195500
324 2 0.000000 2.715500 437.195500
325 2 0.000000 0.000000 439.911000
326 2 2.715500 2.715500 439.911000
327 2 2.715500 0.000000 442.626500
328 2 0.000000 2.715500 442.626500
329 2 0.000000 0.000000 445.342000
330 2 2.715500 2.715500 445.342000
331 2 2.715500 0.000000 448.057500
332 2 0.000000 2.715500 448.057500
333 2 0.000000 0.000000 450.773000
334 2 2.715500 2.715500 450.773000
335 2 2.715500 0.000000 453.488500
336 2 0.000000 2.715500 453.488500
337 2 0.000000 0.000000 456.204000
338 2 2.715500 2.715500 456.204000
339 2 2.715500 0.000000 458.919500
340 2 0.000000 2.715500 458.919500
341 2 0.000000 0.000000 461.635000
342 2 2.715500 2.715500 461.635000
343 2 2.715500 0.000000 464.350500
344 2 0.000000 2.715500 464.350500
345 2 0.000000 0.000000 467.066000
346 2 2.715500 2.715500 467.066000
347 2 2.715500 0.000000 469.781500
348 2 0.000000 2.715500 469.781500
349 2 0.000000 0.000000 472.497000
350 2 2.715500 2.715500 472.497000
351 2 2.715500 0.000000 475.212500
352 2 0.000000 2.715500 475.212500
353 2 0.000000 0.000000 477.928000
354 2 2.715500 2.715500 477.928000
355 2 2.715500 0.000000 480.643500
356 2 0.000000 2.715500 480.643500
357 2 0.000000 0.000000 483.359000
358 2 2.715500 2.715500 483.359000
359 2 2.715500 0.000000 486.074500
360 2 0.000000 2.715500 486.074500
361 2 0.000000 0.000000 488.790000
362 2 2.715500 2.715500 488.790000
363 2 2.715500 0.000000 491.505500
364 2 0.000000 2.715500 491.505500
365 2 0.000000 0.000000 494.221000
366 2 2.715500 2.715500 494.221000
367 2 2.715500 0.000000 496.936500
368 2 0.000000 2.715500 496.936500
369 2 0.000000 0.000000 499.652000
370 2 2.715500 2.715500 499.652000
371 2 2.715500 0.000000 502.367500
372 2 0.000000 2.715500 502.367500
373 2 0.000000 0.000000 505.083000
374 2 2.715500 2.715500 505.083000
375 2 2.715500 0.000000 507.798500
376 2 0.000000 2.715500 507.798500
377 2 0.000000 0.000000 510.514000
378 2 2.715500 2.715500 510.514000
379 2 2.715500 0.000000 513.229500
380 2 0.000000 2.715500 513.229500
381 2 0.000000 0.000000 515.945000
382 2 2.715500 2.715500 515.945000
383 2 2.715500 0.000000 518.660500
384 2 0.000000 2.715500 518.660500
385 2 0.000000 0.000000 521.376000
386 2 2.715500 2.715500 521.376000
387 2 2.715500 0.000000 524.091500
388 2 0.000000 2.715500 524.091500
389 2 0.000000 0.000000 526.807000
390 2 2.715500 2.715500 526.807000
391 2 2.715500 0.000000 529.522500
392 2 0.000000 2.715500 529.522500
393 2 0.000000 0.000000 532.238000
394 2 2.715500 2.715500 532.238000
395 2 2.715500 0.000000 534.953500
396 2 0.000000 2.715500 534.953500
397 2 0.000000 0.000000 537.669000
398 2 2.715500 2.715500 537.669000
399 2 2.715500 0.000000 540.384500
400 2 0.000000 2.715500 540.384500
401 1 1.357750 1.357750 1.357750
402 1 4.073250 4.073250 1.357750
403 1 4.073250 1.357750 4.073250
404 1 1.357750 4.073250 4.073250
405 1 1.357750 1.357750 6.788750
406 1 4.073250 4.073250 6.788750
407 1 4.073250 1.357750 9.504250
408 1 1.357750 4.073250 9.504250
409 1 1.357750 1.357750 12.219750
410 1 4.073250 4.073250 12.219750
411 1 4.073250 1.357750 14.935250
412 1 1.357750 4.073250 14.935250
413 1 1.357750 1.357750 17.650750
414 1 4.073250 4.073250 17.650750
415 1 4.073250 1.357750 20.366250
416 1 1.357750 4.073250 20.366250
417 1 1.357750 1.357750 23.081750
418 1 4.073250 4.073250 23.081750
419 1 4.073250 1.357750 25.797250
420 1 1.357750 4.073250 25.797250
421 1 1.357750 1.357750 28.512750
422 1 4.073250 4.073250 28.512750
423 1 4.073250 1.357750 31.228250
424 1 1.357750 4.073250 31.228250
425 1 1.357750 1.357750 33.943750
426 1 4.073250 4.073250 33.943750
427 1 4.073250 1.357750 36.659250
428 1 1.357750 4.073250 36.659250
429 1 1.357750 1.357750 39.374750
430 1 4.073250 4.073250 39.374750
431 1 4.073250 1.357750 42.090250
432 1 1.357750 4.073250 42.090250
433 1 1.357750 1.357750 44.805750
434 1 4.073250 4.073250 44.805750
435 1 4.073250 1.357750 47.521250
436 1 1.357750 4.073250 47.521250
437 1 1.357750 1.357750 50.236750
438 1 4.073250 4.073250 50.236750
439 1 4.073250 1.357750 52.952250
440 1 1.357750 4.073250 52.952250
441 1 1.357750 1.357750 55.667750
442 1 4.073250 4.073250 55.667750
443 1 4.073250 1.357750 58.383250
444 1 1.357750 4.073250 58.383250
445 1 1.357750 1.357750 61.098750
446 1 4.073250 4.073250 61.098750
447 1 4.073250 1.357750 63.814250
448 1 1.357750 4.073250 63.814250
449 1 1.357750 1.357750 66.529750
450 1 4.073250 4.073250 66.529750
451 1 4.073250 1.357750 69.245250
452 1 1.357750 4.073250 69.245250
453 1 1.357750 1.357750 71.960750
454 1 4.073250 4.073250 71.960750
455 1 4.073250 1.357750 74.676250
456 1 1.357750 4.073250 74.676250
457 1 1.357750 1.357750 77.391750
458 1 4.073250 4.073250 77.391750
459 1 4.073250 1.357750 80.107250
460 1 1.357750 4.073250 80.107250
461 1 1.357750 1.357750 82.822750
462 1 4.073250 4.073250 82.822750
463 1 4.073250 1.357750 85.538250
464 1 1.357750 4.073250 85.538250
465 1 1.357750 1.357750 88.253750
466 1 4.073250 4.073250 88.253750
467 1 4.073250 1.357750 90.969250
468 1 1.357750 4.073250 90.969250
469 1 1.357750 1.357750 93.684750
470 1 4.073250 4.073250 93.684750
471 1 4.073250 1.357750 96.400250
472 1 1.357750 4.073250 96.400250
473 1 1.357750 1.357750 99.115750
474 1 4.073250 4.073250 99.115750
475 1 4.073250 1.357750 101.831250
476 1 1.357750 4.073250 101.831250
477 1 1.357750 1.357750 104.546750
478 1 4.073250 4.073250 104.546750
479 1 4.073250 1.357750 107.262250
480 1 1.357750 4.073250 107.262250
481 1 1.357750 1.357750 109.977750
482 1 4.073250 4.073250 109.977750
483 1 4.073250 1.357750 112.693250
484 1 1.357750 4.073250 112.693250
485 1 1.357750 1.357750 115.408750
486 1 4.073250 4.073250 115.408750
487 1 4.073250 1.357750 118.124250
488 1 1.357750 4.073250 118.124250
489 1 1.357750 1.357750 120.839750
490 1 4.073250 4.073250 120.839750
491 1 4.073250 1.357750 123.555250
492 1 1.357750 4.073250 123.555250
493 1 1.357750 1.357750 126.270750
494 1 4.073250 4.073250 126.270750
495 1 4.073250 1.357750 128.986250
496 1 1.357750 4.073250 128.986250
497 1 1.357750 1.357750 131.701750
498 1 4.073250 4.073250 131.701750
499 1 4.073250 1.357750 134.417250
500 1 1.357750 4.073250 134.417250
501 1 1.357750 1.357750 137.132750
502 1 4.073250 4.073250 137.132750
503 1 4.073250 1.357750 139.848250
504 1 1.357750 4.073250 139.848250
505 1 1.357750 1.357750 142.563750
506 1 4.073250 4.073250 142.563750
507 1 4.073250 1.357750 145.279250
508 1 1.357750 4.073250 145.279250
509 1 1.357750 1.357750 147.994750
510 1 4.073250 4.073250 147.994750
511 1 4.073250 1.357750 150.710250
512 1 1.357750 4.073250 150.710250
513 1 1.357750 1.357750 153.425750
514 1 4.073250 4.073250 153.425750
515 1 4.073250 1.357750 156.141250
516 1 1.357750 4.073250 156.141250
517 1 1.357750 1.357750 158.856750
518 1 4.073250 4.073250 158.856750
519 1 4.073250 1.357750 161.572250
520 1 1.357750 4.073250 161.572250
521 1 1.357750 1.357750 164.287750
522 1 4.073250 4.073250 164.287750
523 1 4.073250 1.357750 167.003250
524 1 1.357750 4.073250 167.003250
525 1 1.357750 1.357750 169.718750
526 1 4.073250 4.073250 169.718750
527 1 4.073250 1.357750 172.434250
528 1 1.357750 4.073250 172.434250
529 1 1.357750 1.357750 175.149750
530 1 4.073250 4.073250 175.149750
531 1 4.073250 1.357750 177.865250
532 1 1.357750 4.073250 177.865250
533 1 1.357750 1.357750 180.580750
534 1 4.073250 4.073250 180.580750
535 1 4.073250 1.357750 183.296250
536 1 1.357750 4.073250 183.296250
537 1 1.357750 1.357750 186.011750
538 1 4.073250 4.073250 186.011750
539 1 4.073250 1.357750 188.727250
540 1 1.357750 4.073250 188.727250
541 1 1.357750 1.357750 191.442750
542 1 4.073250 4.073250 191.442750
543 1 4.073250 1.357750 194.158250
544 1 1.357750 4.073250 194.158250
545 1 1.357750 1.357750 196.873750
546 1 4.073250 4.073250 196.873750
547 1 4.073250 1.357750 199.589250
548 1 1.357750 4.073250 199.589250
549 1 1.357750 1.357750 202.304750
550 1 4.073250 4.073250 202.304750
551 1 4.073250 1.357750 205.020250
552 1 1.357750 4.073250 205.020250
553 1 1.357750 1.357750 207.735750
554 1 4.073250 4.073250 207.735750
555 1 4.073250 1.357750 210.451250
556 1 1.357750 4.073250 210.451250
557 1 1.357750 1.357750 213.166750
558 1 4.073250 4.073250 213.166750
559 1 4.073250 1.357750 215.882250
560 1 1.357750 4.073250 215.882250
561 1 1.357750 1.357750 218.597750
562 1 4.073250 4.073250 218.597750
563 1 4.073250 1.357750 221.313250
564 1 1.357750 4.073250 221.313250
565 1 1.357750 1.357750 224.028750
566 1 4.073250 4.073250 224.028750
567 1 4.073250 1.357750 226.744250
568 1 1.357750 4.073250 226.744250
569 1 1.357750 1.357750 229.459750
570 1 4.073250 4.073250 229.459750
571 1 4.073250 1.357750 232.175250
572 1 1.357750 4.073250 232.175250
573 1 1.357750 1.357750 234.890750
574 1 4.073250 4.073250 234.890750
575 1 4.073250 1.357750 237.606250
576 1 1.357750 4.073250 237.606250
577 1 1.357750 1.357750 240.321750
578 1 4.073250 4.073250 240.321750
579 1 4.073250 1.357750 243.037250
580 1 1.357750 4.073250 243.037250
581 1 1.357750 1.357750 245.752750
582 1 4.073250 4.073250 245.752750
583 1 4.073250 1.357750 248.468250
584 1 1.357750 4.073250 248.468250
585 1 1.357750 1.357750 251.183750
586 1 4.073250 4.073250 251.183750
587 1 4.073250 1.357750 253.899250
588 1 1.357750 4.073250 253.899250
589 1 1.357750 1.357750 256.614750
590 1 4.073250 4.073250 256.614750
591 1 4.073250 1.357750 259.330250
592 1 1.357750 4.073250 259.330250
593 1 1.357750 1.357750 262.045750
594 1 4.073250 4.073250 262.045750
595 1 4.073250 1.357750 264.761250
596 1 1.357750 4.073250 264.761250
597 1 1.357750 1.357750 267.476750
598 1 4.073250 4.073250 267.476750
599 1 4.073250 1.357750 270.192250
600 1 1.357750 4.073250 270.192250
601 2 1.357750 1.357750 272.907750
602 2 4.073250 4.073250 272.907750
603 2 4.073250 1.357750 275.623250
604 2 1.357750 4.073250 275.623250
605 2 1.357750 1.357750 278.338750
606 2 4.073250 4.073250 278.338750
607 2 4.073250 1.357750 281.054250
608 2 1.357750 4.073250 281.054250
609 2 1.357750 1.357750 283.769750
610 2 4.073250 4.073250 283.769750
611 2 4.073250 1.357750 286.485250
612 2 1.357750 4.073250 286.485250
613 2 1.357750 1.357750 289.200750
614 2 4.073250 4.073250 289.200750
615 2 4.073250 1.357750 291.916250
616 2 1.357750 4.073250 291.916250
617 2 1.357750 1.357750 294.631750
618 2 4.073250 4.073250 294.631750
619 2 4.073250 1.357750 297.347250
620 2 1.357750 4.073250 297.347250
621 2 1.357750 1.357750 300.062750
622 2 4.073250 4.073250 300.062750
623 2 4.073250 1.357750 302.778250
624 2 1.357750 4.073250 302.778250
625 2 1.357750 1.357750 305.493750
626 2 4.073250 4.073250 305.493750
627 2 4.073250 1.357750 308.209250
628 2 1.357750 4.073250 308.209250
629 2 1.357750 1.357750 310.924750
630 2 4.073250 4.073250 310.924750
631 2 4.073250 1.357750 313.640250
632 2 1.357750 4.073250 313.640250
633 2 1.357750 1.357750 316.355750
634 2 4.073250 4.073250 316.355750
635 2 4.073250 1.357750 319.071250
636 2 1.357750 4.073250 319.071250
637 2 1.357750 1.357750 321.786750
638 2 4.073250 4.073250 321.786750
639 2 4.073250 1.357750 324.502250
640 2 1.357750 4.073250 324.502250
641 2 1.357750 1.357750 327.217750
642 2 4.073250 4.073250 327.217750
643 2 4.073250 1.357750 329.933250
644 2 1.357750 4.073250 329.933250
645 2 1.357750 1.357750 332.648750
646 2 4.073250 4.073250 332.648750
647 2 4.073250 1.357750 335.364250
648 2 1.357750 4.073250 335.364250
649 2 1.357750 1.357750 338.079750
650 2 4.073250 4.073250 338.079750
651 2 4.073250 1.357750 340.795250
652 2 1.357750 4.073250 340.795250
653 2 1.357750 1.357750 343.510750
654 2 4.073250 4.073250 343.510750
655 2 4.073250 1.357750 346.226250
656 2 1.357750 4.073250 346.226250
657 2 1.357750 1.357750 348.941750
658 2 4.073250 4.073250 348.941750
659 2 4.073250 1.357750 351.657250
660 2 1.357750 4.073250 351.657250
661 2 1.357750 1.357750 354.372750
662 2 4.073250 4.073250 354.372750
663 2 4.073250 1.357750 357.088250
664 2 1.357750 4.073250 357.088250
665 2 1.357750 1.357750 359.803750
666 2 4.073250 4.073250 359.803750
667 2 4.073250 1.357750 362.519250
668 2 1.357750 4.073250 362.519250
669 2 1.357750 1.357750 365.234750
670 2 4.073250 4.073250 365.234750
671 2 4.073250 1.357750 367.950250
672 2 1.357750 4.073250 367.950250
673 2 1.357750 1.357750 370.665750
674 2 4.073250 4.073250 370.665750
675 2 4.073250 1.357750 373.381250
676 2 1.357750 4.073250 373.381250
677 2 1.357750 1.357750 376.096750
678 2 4.073250 4.073250 376.096750
679 2 4.073250 1.357750 378.812250
680 2 1.357750 4.073250 378.812250
681 2 1.357750 1.357750 381.527750
682 2 4.073250 4.073250 381.527750
683 2 4.073250 1.357750 384.243250
684 2 1.357750 4.073250 384.243250
685 2 1.357750 1.357750 386.958750
686 2 4.073250 4.073250 386.958750
687 2 4.073250 1.357750 389.674250
688 2 1.357750 4.073250 389.674250
689 2 1.357750 1.357750 392.389750
690 2 4.073250 4.073250 392.389750
691 2 4.073250 1.357750 395.105250
692 2 1.357750 4.073250 395.105250
693 2 1.357750 1.357750 397.820750
694 2 4.073250 4.073250 397.820750
695 2 4.073250 1.357750 400.536250
696 2 1.357750 4.073250 400.536250
697 2 1.357750 1.357750 403.251750
698 2 4.073250 4.073250 403.251750
699 2 4.073250 1.357750 405.967250
700 2 1.357750 4.073250 405.967250
701 2 1.357750 1.357750 408.682750
702 2 4.073250 4.073250 408.682750
703 2 4.073250 1.357750 411.398250
704 2 1.357750 4.073250 411.398250
705 2 1.357750 1.357750 414.113750
706 2 4.073250 4.073250 414.113750
707 2 4.073250 1.357750 416.829250
708 2 1.357750 4.073250 416.829250
709 2 1.357750 1.357750 419.544750
710 2 4.073250 4.073250 419.544750
711 2 4.073250 1.357750 422.260250
712 2 1.357750 4.073250 422.260250
713 2 1.357750 1.357750 424.975750
714 2 4.073250 4.073250 424.975750
715 2 4.073250 1.357750 427.691250
716 2 1.357750 4.073250 427.691250
717 2 1.357750 1.357750 430.406750
718 2 4.073250 4.073250 430.406750
719 2 4.073250 1.357750 433.122250
720 2 1.357750 4.073250 433.122250
721 2 1.357750 1.357750 435.837750
722 2 4.073250 4.073250 435.837750
723 2 4.073250 1.357750 438.553250
724 2 1.357750 4.073250 438.553250
725 2 1.357750 1.357750 441.268750
726 2 4.073250 4.073250 441.268750
727 2 4.073250 1.357750 443.984250
728 2 1.357750 4.073250 443.984250
729 2 1.357750 1.357750 446.699750
730 2 4.073250 4.073250 446.699750
731 2 4.073250 1.357750 449.415250
732 2 1.357750 4.073250 449.415250
733 2 1.357750 1.357750 452.130750
734 2 4.073250 4.073250 452.130750
735 2 4.073250 1.357750 454.846250
736 2 1.357750 4.073250 454.846250
737 2 1.357750 1.357750 457.561750
738 2 4.073250 4.073250 457.561750
739 2 4.073250 1.357750 460.277250
740 2 1.357750 4.073250 460.277250
741 2 1.357750 1.357750 462.992750
742 2 4.073250 4.073250 462.992750
743 2 4.073250 1.357750 465.708250
744 2 1.357750 4.073250 465.708250
745 2 1.357750 1.357750 468.423750
746 2 4.073250 4.073250 468.423750
747 2 4.073250 1.357750 471.139250
748 2 1.357750 4.073250 471.139250
749 2 1.357750 1.357750 473.854750
750 2 4.073250 4.073250 473.854750
751 2 4.073250 1.357750 476.570250
752 2 1.357750 4.073250 476.570250
753 2 1.357750 1.357750 479.285750
754 2 4.073250 4.073250 479.285750
755 2 4.073250 1.357750 482.001250
756 2 1.357750 4.073250 482.001250
757 2 1.357750 1.357750 484.716750
758 2 4.073250 4.073250 484.716750
759 2 4.073250 1.357750 487.432250
760 2 1.357750 4.073250 487.432250
761 2 1.357750 1.357750 490.147750
762 2 4.073250 4.073250 490.147750
763 2 4.073250 1.357750 492.863250
764 2 1.357750 4.073250 492.863250
765 2 1.357750 1.357750 495.578750
766 2 4.073250 4.073250 495.578750
767 2 4.073250 1.357750 498.294250
768 2 1.357750 4.073250 498.294250
769 2 1.357750 1.357750 501.009750
770 2 4.073250 4.073250 501.009750
771 2 4.073250 1.357750 503.725250
772 2 1.357750 4.073250 503.725250
773 2 1.357750 1.357750 506.440750
774 2 4.073250 4.073250 506.440750
775 2 4.073250 1.357750 509.156250
776 2 1.357750 4.073250 509.156250
777 2 1.357750 1.357750 511.871750
778 2 4.073250 4.073250 511.871750
779 2 4.073250 1.357750 514.587250
780 2 1.357750 4.073250 514.587250
781 2 1.357750 1.357750 517.302750
782 2 4.073250 4.073250 517.302750
783 2 4.073250 1.357750 520.018250
784 2 1.357750 4.073250 520.018250
785 2 1.357750 1.357750 522.733750
786 2 4.073250 4.073250 522.733750
787 2 4.073250 1.357750 525.449250
788 2 1.357750 4.073250 525.449250
789 2 1.357750 1.357750 528.164750
790 2 4.073250 4.073250 528.164750
791 2 4.073250 1.357750 530.880250
792 2 1.357750 4.073250 530.880250
793 2 1.357750 1.357750 533.595750
794 2 4.073250 4.073250 533.595750
795 2 4.073250 1.357750 536.311250
796 2 1.357750 4.073250 536.311250
797 2 1.357750 1.357750 539.026750
798 2 4.073250 4.073250 539.026750
799 2 4.073250 1.357750 541.742250
800 2 1.357750 4.073250 541.742250
