LAMMPS DATA file generated by structure.cpp

3200 atoms

2 atom types

0.0 10.862000 xlo xhi
0.0 10.862000 ylo yhi
0.0 543.100000 zlo zhi

Masses

1 28.0855
2 72.64

Atoms

1 1 6.788750 1.357750 1.357750
2 1 9.504250 4.073250 1.357750
3 1 9.504250 1.357750 4.073250
4 1 1.357750 1.357750 1.357750
5 1 4.073250 4.073250 1.357750
6 1 6.788750 6.788750 1.357750
7 1 9.504250 9.504250 1.357750
8 1 4.073250 1.357750 4.073250
9 1 6.788750 4.073250 4.073250
10 1 9.504250 6.788750 4.073250
11 1 6.788750 1.357750 6.788750
12 1 9.504250 4.073250 6.788750
13 1 9.504250 1.357750 9.504250
14 1 1.357750 6.788750 1.357750
15 1 4.073250 9.504250 1.357750
16 1 1.357750 4.073250 4.073250
17 1 4.073250 6.788750 4.073250
18 1 6.788750 9.504250 4.073250
19 1 1.357750 1.357750 6.788750
20 1 4.073250 4.073250 6.788750
21 1 6.788750 6.788750 6.788750
22 1 9.504250 9.504250 6.788750
23 2 4.073250 1.357750 9.504250
24 1 6.788750 4.073250 9.504250
25 1 9.504250 6.788750 9.504250
26 1 6.788750 1.357750 12.219750
27 2 9.504250 4.073250 12.219750
28 1 9.504250 1.357750 14.935250
29 1 1.357750 9.504250 4.073250
30 1 1.357750 6.788750 6.788750
31 1 4.073250 9.504250 6.788750
32 1 1.357750 4.073250 9.504250
33 1 4.073250 6.788750 9.504250
34 1 6.788750 9.504250 9.504250
35 1 1.357750 1.357750 12.219750
36 1 4.073250 4.073250 12.219750
37 2 6.788750 6.788750 12.219750
38 1 9.504250 9.504250 12.219750
39 1 4.073250 1.357750 14.935250
40 1 6.788750 4.073250 14.935250
41 2 9.504250 6.788750 14.935250
42 1 6.788750 1.357750 17.650750
43 1 9.504250 4.073250 17.650750
44 1 9.504250 1.357750 20.366250
45 1 1.357750 9.504250 9.504250
46 1 1.357750 6.788750 12.219750
47 1 4.073250 9.504250 12.219750
48 1 1.357750 4.073250 14.935250
49 1 4.073250 6.788750 14.935250
50 1 6.788750 9.504250 14.935250
51 1 1.357750 1.357750 17.650750
52 1 4.073250 4.073250 17.650750
53 1 6.788750 6.788750 17.650750
54 1 9.504250 9.504250 17.650750
55 1 4.073251 1.357750 20.366250
56 1 6.788750 4.073250 20.366250
57 1 9.504250 6.788750 20.366250
58 1 6.788751 1.357750 23.081750
59 1 9.504250 4.073250 23.081750
60 1 9.504250 1.357750 25.797250
61 1 1.357750 9.504250 14.935250
62 1 1.357750 6.788750 17.650750
63 1 4.073250 9.504250 17.650750
64 2 1.357750 4.073251 20.366250
65 1 4.073250 6.788750 20.366250
66 1 6.788750 9.504250 20.366250
67 1 1.357750 1.357750 23.081750
68 1 4.073251 4.073251 23.081750
69 1 6.788750 6.788750 23.081750
70 1 9.504250 9.504250 23.081750
71 1 4.073251 1.357750 25.797250
72 1 6.788751 4.073251 25.797250
73 1 9.504250 6.788750 25.797250
74 1 6.788750 1.357750 28.512750
75 1 9.504250 4.073251 28.512750
76 1 9.504250 1.357750 31.228250
77 1 1.357750 9.504250 20.366250
78 1 1.357750 6.788751 23.081750
79 2 4.073250 9.504250 23.081750
80 1 1.357750 4.073251 25.797250
81 2 4.073251 6.788751 25.797250
82 1 6.788750 9.504250 25.797250
83 1 1.357750 1.357750 28.512750
84 1 4.073251 4.073251 28.512750
85 1 6.788751 6.788751 28.512750
86 1 9.504250 9.504250 28.512750
87 1 4.073250 1.357750 31.228250
88 1 6.788750 4.073251 31.228250
89 1 9.504250 6.788751 31.228250
90 1 6.788751 1.357750 33.943750
91 1 9.504250 4.073251 33.943750
92 1 9.504250 1.357750 36.659251
93 1 1.357750 9.504250 25.797250
94 1 1.357750 6.788750 28.512750
95 1 4.073251 9.504250 28.512750
96 1 1.357750 4.073250 31.228250
97 1 4.073251 6.788750 31.228250
98 1 6.788751 9.504250 31.228250
99 1 1.357750 1.357750 33.943750
100 1 4.073250 4.073250 33.943750
101 1 6.788750 6.788750 33.943750
102 1 9.504250 9.504250 33.943750
103 1 4.073251 1.357750 36.659251
104 1 6.788751 4.073250 36.659251
105 1 9.504250 6.788750 36.659251
106 1 6.788751 1.357750 39.374750
107 1 9.504250 4.073250 39.374750
108 1 9.504250 1.357750 42.090251
109 2 1.357750 9.504250 31.228250
110 1 1.357750 6.788751 33.943750
111 1 4.073251 9.504250 33.943750
112 1 1.357750 4.073251 36.659251
113 1 4.073250 6.788751 36.659251
114 1 6.788750 9.504250 36.659251
115 1 1.357750 1.357750 39.374751
116 1 4.073251 4.073251 39.374751
117 1 6.788751 6.788751 39.374751
118 1 9.504250 9.504250 39.374751
119 1 4.073250 1.357750 42.090251
120 1 6.788751 4.073251 42.090251
121 1 9.504250 6.788751 42.090251
122 1 6.788750 1.357750 44.805750
123 1 9.504250 4.073251 44.805750
124 1 9.504250 1.357750 47.521250
125 1 1.357750 9.504250 36.659251
126 1 1.357750 6.788751 39.374750
127 1 4.073250 9.504250 39.374750
128 1 1.357750 4.073250 42.090251
129 2 4.073251 6.788751 42.090251
130 1 6.788751 9.504250 42.090251
131 2 1.357750 1.357750 44.805750
132 1 4.073250 4.073250 44.805750
133 1 6.788751 6.788751 44.805750
134 1 9.504250 9.504250 44.805750
135 1 4.073250 1.357750 47.521250
136 1 6.788750 4.073250 47.521250
137 1 9.504250 6.788751 47.521250
138 1 6.788751 1.357750 50.236751
139 1 9.504250 4.073250 50.236751
140 1 9.504250 1.357750 52.952250
141 2 1.357750 9.504250 42.090251
142 1 1.357750 6.788750 44.805750
143 1 4.073251 9.504250 44.805750
144 1 1.357750 4.073250 47.521250
145 1 4.073250 6.788750 47.521250
146 1 6.788751 9.504250 47.521250
147 1 1.357750 1.357750 50.236750
148 1 4.073250 4.073250 50.236750
149 1 6.788750 6.788750 50.236750
150 1 9.504250 9.504250 50.236750
151 1 4.073251 1.357750 52.952250
152 1 6.788751 4.073250 52.952250
153 2 9.504250 6.788750 52.952250
154 1 6.788751 1.357750 55.667751
155 1 9.504250 4.073250 55.667751
156 1 9.504250 1.357750 58.383250
157 1 1.357750 9.504250 47.521250
158 1 1.357750 6.788751 50.236751
159 1 4.073250 9.504250 50.236751
160 1 1.357750 4.073251 52.952250
161 2 4.073250 6.788751 52.952250
162 1 6.788750 9.504250 52.952250
163 1 1.357750 1.357750 55.667751
164 1 4.073251 4.073251 55.667751
165 2 6.788751 6.788751 55.667751
166 1 9.504250 9.504250 55.667751
167 1 4.073250 1.357750 58.383251
168 1 6.788751 4.073251 58.383251
169 1 9.504250 6.788751 58.383251
170 1 6.788750 1.357750 61.098750
171 1 9.504250 4.073251 61.098750
172 1 9.504250 1.357750 63.814250
173 1 1.357750 9.504250 52.952250
174 1 1.357750 6.788751 55.667751
175 1 4.073250 9.504250 55.667751
176 1 1.357750 4.073250 58.383251
177 1 4.073251 6.788751 58.383251
178 1 6.788751 9.504250 58.383251
179 1 1.357750 1.357750 61.098750
180 1 4.073250 4.073250 61.098750
181 1 6.788751 6.788751 61.098750
182 1 9.504250 9.504250 61.098750
183 2 4.073250 1.357750 63.814250
184 1 6.788750 4.073250 63.814250
185 1 9.504250 6.788751 63.814250
186 1 6.788750 1.357750 66.529750
187 2 9.504250 4.073250 66.529750
188 1 9.504251 1.357750 69.245250
189 1 1.357750 9.504250 58.383250
190 1 1.357750 6.788750 61.098750
191 1 4.073251 9.504250 61.098750
192 1 1.357750 4.073250 63.814250
193 1 4.073250 6.788750 63.814250
194 2 6.788751 9.504250 63.814250
195 1 1.357750 1.357750 66.529750
196 1 4.073250 4.073250 66.529750
197 1 6.788750 6.788750 66.529750
198 1 9.504250 9.504250 66.529750
199 1 4.073250 1.357750 69.245250
200 1 6.788750 4.073250 69.245250
201 1 9.504250 6.788750 69.245250
202 1 6.788751 1.357750 71.960750
203 1 9.504251 4.073250 71.960750
204 2 9.504251 1.357750 74.676250
205 1 1.357750 9.504250 63.814250
206 1 1.357750 6.788750 66.529750
207 1 4.073250 9.504250 66.529750
208 1 1.357750 4.073250 69.245250
209 2 4.073250 6.788750 69.245250
210 1 6.788750 9.504250 69.245250
211 1 1.357750 1.357750 71.960750
212 1 4.073250 4.073250 71.960750
213 1 6.788750 6.788750 71.960750
214 1 9.504250 9.504250 71.960750
215 1 4.073251 1.357750 74.676250
216 1 6.788751 4.073250 74.676250
217 1 9.504251 6.788750 74.676250
218 1 6.788751 1.357750 77.391750
219 1 9.504251 4.073250 77.391750
220 1 9.504251 1.357750 80.107250
221 2 1.357750 9.504251 69.245250
222 1 1.357750 6.788751 71.960750
223 1 4.073250 9.504251 71.960750
224 1 1.357750 4.073251 74.676250
225 1 4.073250 6.788751 74.676250
226 1 6.788750 9.504251 74.676250
227 1 1.357750 1.357750 77.391750
228 1 4.073251 4.073251 77.391750
229 1 6.788751 6.788751 77.391750
230 1 9.504251 9.504251 77.391750
231 1 4.073250 1.357750 80.107251
232 1 6.788751 4.073251 80.107251
233 1 9.504251 6.788751 80.107251
234 1 6.788750 1.357750 82.822750
235 1 9.504251 4.073251 82.822750
236 1 9.504250 1.357750 85.538250
237 1 1.357750 9.504251 74.676250
238 1 1.357750 6.788751 77.391750
239 1 4.073250 9.504251 77.391750
240 1 1.357750 4.073250 80.107251
241 1 4.073251 6.788751 80.107251
242 1 6.788751 9.504251 80.107251
243 2 1.357750 1.357750 82.822750
244 2 4.073250 4.073250 82.822750
245 1 6.788751 6.788751 82.822750
246 1 9.504251 9.504251 82.822750
247 1 4.073250 1.357750 85.538250
248 1 6.788750 4.073250 85.538250
249 1 9.504251 6.788751 85.538250
250 1 6.788750 1.357750 88.253750
251 1 9.504250 4.073250 88.253750
252 1 9.504250 1.357750 90.969250
253 1 1.357750 9.504251 80.107250
254 1 1.357750 6.788750 82.822750
255 2 4.073251 9.504251 82.822750
256 1 1.357750 4.073250 85.538250
257 2 4.073250 6.788750 85.538250
258 1 6.788751 9.504251 85.538250
259 1 1.357750 1.357750 88.253750
260 2 4.073250 4.073250 88.253750
261 2 6.788750 6.788750 88.253750
262 1 9.504251 9.504251 88.253750
263 1 4.073250 1.357750 90.969250
264 1 6.788750 4.073250 90.969250
265 1 9.504250 6.788750 90.969250
266 1 6.788750 1.357750 93.684750
267 1 9.504250 4.073250 93.684750
268 2 9.504251 1.357750 96.400250
269 1 1.357750 9.504250 85.538250
270 1 1.357750 6.788750 88.253750
271 1 4.073250 9.504250 88.253750
272 1 1.357750 4.073250 90.969250
273 2 4.073250 6.788750 90.969250
274 1 6.788750 9.504250 90.969250
275 1 1.357750 1.357750 93.684750
276 1 4.073250 4.073250 93.684750
277 1 6.788750 6.788750 93.684750
278 1 9.504250 9.504250 93.684750
279 1 4.073250 1.357750 96.400250
280 1 6.788750 4.073250 96.400250
281 1 9.504250 6.788750 96.400250
282 1 6.788751 1.357750 99.115750
283 1 9.504251 4.073250 99.115750
284 1 9.504251 1.357750 101.831250
285 1 1.357750 9.504250 90.969250
286 1 1.357750 6.788750 93.684750
287 1 4.073250 9.504250 93.684750
288 1 1.357750 4.073250 96.400250
289 1 4.073250 6.788750 96.400250
290 1 6.788750 9.504250 96.400250
291 2 1.357750 1.357750 99.115750
292 2 4.073250 4.073250 99.115750
293 1 6.788750 6.788750 99.115750
294 1 9.504250 9.504250 99.115750
295 1 4.073251 1.357750 101.831250
296 1 6.788751 4.073250 101.831250
297 1 9.504251 6.788750 101.831250
298 1 6.788751 1.357750 104.546750
299 1 9.504251 4.073250 104.546750
300 1 9.504251 1.357750 107.262250
301 1 1.357750 9.504251 96.400250
302 1 1.357750 6.788751 99.115750
303 1 4.073250 9.504251 99.115750
304 1 1.357750 4.073251 101.831250
305 1 4.073250 6.788751 101.831250
306 1 6.788750 9.504251 101.831250
307 1 1.357750 1.357750 104.546750
308 1 4.073251 4.073251 104.546750
309 1 6.788751 6.788751 104.546750
310 1 9.504251 9.504251 104.546750
311 1 4.073250 1.357750 107.262251
312 1 6.788751 4.073251 107.262251
313 1 9.504251 6.788751 107.262251
314 1 6.788750 1.357750 109.977750
315 1 9.504251 4.073251 109.977750
316 1 9.504250 1.357750 112.693250
317 2 1.357750 9.504251 101.831250
318 1 1.357750 6.788751 104.546750
319 1 4.073250 9.504251 104.546750
320 1 1.357750 4.073250 107.262251
321 1 4.073251 6.788751 107.262251
322 1 6.788751 9.504251 107.262251
323 1 1.357750 1.357750 109.977750
324 1 4.073250 4.073250 109.977750
325 2 6.788751 6.788751 109.977750
326 1 9.504251 9.504251 109.977750
327 1 4.073250 1.357750 112.693250
328 2 6.788750 4.073250 112.693250
329 1 9.504251 6.788751 112.693250
330 2 6.788750 1.357750 115.408750
331 1 9.504250 4.073250 115.408750
332 1 9.504250 1.357750 118.124250
333 1 1.357750 9.504251 107.262250
334 1 1.357750 6.788750 109.977750
335 1 4.073251 9.504251 109.977750
336 2 1.357750 4.073250 112.693250
337 1 4.073250 6.788750 112.693250
338 1 6.788751 9.504251 112.693250
339 1 1.357750 1.357750 115.408750
340 1 4.073250 4.073250 115.408750
341 1 6.788750 6.788750 115.408750
342 1 9.504251 9.504251 115.408750
343 1 4.073250 1.357750 118.124250
344 1 6.788750 4.073250 118.124250
345 1 9.504250 6.788750 118.124250
346 1 6.788750 1.357750 120.839750
347 2 9.504250 4.073250 120.839750
348 1 9.504250 1.357750 123.555250
349 1 1.357750 9.504250 112.693250
350 1 1.357750 6.788750 115.408750
351 1 4.073250 9.504250 115.408750
352 1 1.357750 4.073250 118.124250
353 1 4.073250 6.788750 118.124250
354 1 6.788750 9.504250 118.124250
355 1 1.357750 1.357750 120.839750
356 1 4.073250 4.073250 120.839750
357 1 6.788750 6.788750 120.839750
358 1 9.504250 9.504250 120.839750
359 1 4.073250 1.357750 123.555250
360 1 6.788750 4.073250 123.555250
361 1 9.504250 6.788750 123.555250
362 1 6.788750 1.357750 126.270750
363 1 9.504250 4.073250 126.270750
364 1 9.504251 1.357750 128.986251
365 1 1.357750 9.504250 118.124250
366 1 1.357750 6.788750 120.839750
367 1 4.073250 9.504250 120.839750
368 1 1.357750 4.073250 123.555250
369 1 4.073250 6.788750 123.555250
370 1 6.788750 9.504250 123.555250
371 2 1.357750 1.357750 126.270750
372 1 4.073250 4.073250 126.270750
373 2 6.788750 6.788750 126.270750
374 1 9.504250 9.504250 126.270750
375 1 4.073250 1.357750 128.986251
376 1 6.788750 4.073250 128.986251
377 1 9.504250 6.788750 128.986251
378 1 6.788751 1.357750 131.701750
379 1 9.504251 4.073250 131.701750
380 2 9.504250 1.357750 134.417250
381 1 1.357750 9.504250 123.555250
382 1 1.357750 6.788750 126.270750
383 1 4.073250 9.504250 126.270750
384 2 1.357750 4.073250 128.986251
385 1 4.073250 6.788750 128.986251
386 1 6.788750 9.504250 128.986251
387 1 1.357750 1.357750 131.701750
388 1 4.073250 4.073250 131.701750
389 1 6.788750 6.788750 131.701750
390 1 9.504250 9.504250 131.701750
391 1 4.073251 1.357750 134.417251
392 1 6.788751 4.073250 134.417251
393 1 9.504251 6.788750 134.417251
394 1 6.788750 1.357750 137.132750
395 1 9.504250 4.073250 137.132750
396 2 9.504251 1.357750 139.848250
397 1 1.357750 9.504251 128.986251
398 1 1.357750 6.788751 131.701750
399 1 4.073250 9.504251 131.701750
400 1 1.357750 4.073251 134.417251
401 1 4.073250 6.788751 134.417251
402 1 6.788750 9.504251 134.417251
403 1 1.357750 1.357750 137.132751
404 1 4.073251 4.073251 137.132751
405 1 6.788751 6.788751 137.132751
406 1 9.504251 9.504251 137.132751
407 1 4.073250 1.357750 139.848250
408 1 6.788750 4.073251 139.848250
409 1 9.504250 6.788751 139.848250
410 1 6.788750 1.357750 142.563751
411 1 9.504251 4.073251 142.563751
412 1 9.504251 1.357750 145.279251
413 2 1.357750 9.504250 134.417250
414 1 1.357750 6.788750 137.132750
415 1 4.073250 9.504250 137.132750
416 1 1.357750 4.073250 139.848250
417 1 4.073251 6.788750 139.848250
418 1 6.788751 9.504250 139.848250
419 1 1.357750 1.357750 142.563750
420 2 4.073250 4.073250 142.563750
421 1 6.788750 6.788750 142.563750
422 1 9.504250 9.504250 142.563750
423 1 4.073251 1.357750 145.279250
424 1 6.788750 4.073250 145.279250
425 1 9.504251 6.788750 145.279250
426 1 6.788751 1.357750 147.994750
427 1 9.504251 4.073250 147.994750
428 1 9.504251 1.357750 150.710250
429 1 1.357750 9.504251 139.848250
430 1 1.357750 6.788750 142.563751
431 1 4.073251 9.504251 142.563751
432 1 1.357750 4.073251 145.279250
433 1 4.073250 6.788750 145.279250
434 1 6.788750 9.504251 145.279250
435 1 1.357750 1.357750 147.994750
436 1 4.073251 4.073251 147.994750
437 2 6.788750 6.788750 147.994750
438 1 9.504251 9.504251 147.994750
439 1 4.073251 1.357750 150.710251
440 1 6.788751 4.073251 150.710251
441 1 9.504251 6.788750 150.710251
442 1 6.788750 1.357750 153.425750
443 1 9.504251 4.073251 153.425750
444 1 9.504251 1.357750 156.141250
445 1 1.357750 9.504251 145.279251
446 1 1.357750 6.788751 147.994750
447 2 4.073250 9.504251 147.994750
448 1 1.357750 4.073251 150.710251
449 1 4.073251 6.788751 150.710251
450 1 6.788750 9.504251 150.710251
451 1 1.357750 1.357750 153.425751
452 1 4.073251 4.073251 153.425751
453 1 6.788751 6.788751 153.425751
454 1 9.504251 9.504251 153.425751
455 1 4.073250 1.357750 156.141250
456 1 6.788750 4.073251 156.141250
457 1 9.504251 6.788751 156.141250
458 1 6.788750 1.357750 158.856751
459 1 9.504251 4.073251 158.856751
460 1 9.504250 1.357750 161.572250
461 1 1.357750 9.504251 150.710250
462 1 1.357750 6.788750 153.425750
463 1 4.073251 9.504251 153.425750
464 1 1.357750 4.073250 156.141250
465 1 4.073251 6.788750 156.141250
466 1 6.788751 9.504251 156.141250
467 1 1.357750 1.357750 158.856750
468 1 4.073250 4.073250 158.856750
469 1 6.788750 6.788750 158.856750
470 1 9.504251 9.504251 158.856750
471 1 4.073251 1.357750 161.572250
472 1 6.788750 4.073250 161.572250
473 1 9.504251 6.788750 161.572250
474 1 6.788750 1.357750 164.287751
475 1 9.504250 4.073250 164.287751
476 1 9.504251 1.357750 167.003250
477 1 1.357750 9.504251 156.141250
478 2 1.357750 6.788750 158.856751
479 1 4.073251 9.504251 158.856751
480 1 1.357750 4.073251 161.572250
481 1 4.073250 6.788750 161.572250
482 1 6.788750 9.504251 161.572250
483 2 1.357750 1.357750 164.287751
484 2 4.073251 4.073251 164.287751
485 1 6.788750 6.788750 164.287751
486 1 9.504251 9.504251 164.287751
487 1 4.073250 1.357750 167.003250
488 1 6.788750 4.073251 167.003250
489 1 9.504250 6.788750 167.003250
490 2 6.788750 1.357750 169.718750
491 1 9.504251 4.073251 169.718750
492 1 9.504251 1.357750 172.434251
493 2 1.357750 9.504250 161.572250
494 1 1.357750 6.788750 164.287751
495 1 4.073250 9.504250 164.287751
496 1 1.357750 4.073250 167.003250
497 1 4.073251 6.788750 167.003250
498 1 6.788750 9.504250 167.003250
499 1 1.357750 1.357750 169.718750
500 1 4.073250 4.073250 169.718750
501 1 6.788750 6.788750 169.718750
502 2 9.504250 9.504250 169.718750
503 1 4.073251 1.357750 172.434251
504 1 6.788750 4.073250 172.434251
505 1 9.504251 6.788750 172.434251
506 1 6.788751 1.357750 175.149750
507 1 9.504251 4.073250 175.149750
508 1 9.504251 1.357750 177.865250
509 1 1.357750 9.504251 167.003250
510 1 1.357750 6.788750 169.718750
511 1 4.073251 9.504251 169.718750
512 1 1.357750 4.073251 172.434251
513 1 4.073250 6.788750 172.434251
514 1 6.788750 9.504251 172.434251
515 1 1.357750 1.357750 175.149750
516 1 4.073251 4.073251 175.149750
517 2 6.788750 6.788750 175.149750
518 1 9.504251 9.504251 175.149750
519 1 4.073251 1.357750 177.865250
520 1 6.788751 4.073251 177.865250
521 1 9.504251 6.788750 177.865250
522 1 6.788750 1.357750 180.580751
523 1 9.504251 4.073251 180.580751
524 1 9.504251 1.357750 183.296250
525 1 1.357750 9.504251 172.434251
526 1 1.357750 6.788751 175.149750
527 1 4.073250 9.504251 175.149750
528 1 1.357750 4.073251 177.865250
529 1 4.073251 6.788751 177.865250
530 1 6.788750 9.504251 177.865250
531 1 1.357750 1.357750 180.580751
532 1 4.073251 4.073251 180.580751
533 1 6.788751 6.788751 180.580751
534 1 9.504251 9.504251 180.580751
535 1 4.073250 1.357750 183.296250
536 1 6.788750 4.073251 183.296250
537 1 9.504251 6.788751 183.296250
538 1 6.788750 1.357750 186.011750
539 1 9.504251 4.073251 186.011750
540 1 9.504250 1.357750 188.727251
541 1 1.357750 9.504251 177.865250
542 1 1.357750 6.788750 180.580751
543 1 4.073251 9.504251 180.580751
544 1 1.357750 4.073250 183.296250
545 1 4.073251 6.788750 183.296250
546 1 6.788751 9.504251 183.296250
547 1 1.357750 1.357750 186.011750
548 1 4.073250 4.073250 186.011750
549 1 6.788750 6.788750 186.011750
550 1 9.504251 9.504251 186.011750
551 1 4.073251 1.357750 188.727251
552 1 6.788750 4.073250 188.727251
553 1 9.504251 6.788750 188.727251
554 1 6.788750 1.357750 191.442750
555 1 9.504250 4.073250 191.442750
556 1 9.504251 1.357750 194.158250
557 1 1.357750 9.504251 183.296250
558 1 1.357750 6.788750 186.011750
559 1 4.073251 9.504251 186.011750
560 1 1.357750 4.073251 188.727251
561 1 4.073250 6.788750 188.727251
562 1 6.788750 9.504251 188.727251
563 1 1.357750 1.357750 191.442751
564 1 4.073251 4.073251 191.442751
565 1 6.788750 6.788750 191.442751
566 1 9.504251 9.504251 191.442751
567 1 4.073250 1.357750 194.158250
568 1 6.788750 4.073251 194.158250
569 1 9.504250 6.788750 194.158250
570 1 6.788750 1.357750 196.873751
571 1 9.504251 4.073251 196.873751
572 1 9.504251 1.357750 199.589251
573 1 1.357750 9.504250 188.727251
574 1 1.357750 6.788750 191.442750
575 1 4.073250 9.504250 191.442750
576 1 1.357750 4.073250 194.158250
577 1 4.073251 6.788750 194.158250
578 1 6.788750 9.504250 194.158250
579 2 1.357750 1.357750 196.873750
580 1 4.073250 4.073250 196.873750
581 2 6.788750 6.788750 196.873750
582 1 9.504250 9.504250 196.873750
583 1 4.073251 1.357750 199.589250
584 1 6.788750 4.073250 199.589250
585 1 9.504251 6.788750 199.589250
586 1 6.788751 1.357750 202.304750
587 1 9.504251 4.073250 202.304750
588 2 9.504251 1.357750 205.020250
589 1 1.357750 9.504251 194.158250
590 1 1.357750 6.788750 196.873751
591 1 4.073251 9.504251 196.873751
592 1 1.357750 4.073251 199.589250
593 1 4.073250 6.788750 199.589250
594 1 6.788750 9.504251 199.589250
595 1 1.357750 1.357750 202.304750
596 1 4.073251 4.073251 202.304750
597 1 6.788750 6.788750 202.304750
598 1 9.504251 9.504251 202.304750
599 2 4.073251 1.357750 205.020251
600 1 6.788751 4.073251 205.020251
601 1 9.504251 6.788750 205.020251
602 1 6.788750 1.357750 207.735750
603 1 9.504251 4.073251 207.735750
604 1 9.504251 1.357750 210.451251
605 1 1.357750 9.504251 199.589251
606 1 1.357750 6.788751 202.304750
607 1 4.073250 9.504251 202.304750
608 1 1.357750 4.073251 205.020251
609 1 4.073251 6.788751 205.020251
610 1 6.788750 9.504251 205.020251
611 1 1.357750 1.357750 207.735751
612 1 4.073251 4.073251 207.735751
613 1 6.788751 6.788751 207.735751
614 1 9.504251 9.504251 207.735751
615 1 4.073250 1.357750 210.451251
616 1 6.788750 4.073251 210.451251
617 1 9.504251 6.788751 210.451251
618 2 6.788750 1.357750 213.166751
619 1 9.504251 4.073251 213.166751
620 2 9.504250 1.357750 215.882250
621 1 1.357750 9.504251 205.020250
622 2 1.357750 6.788750 207.735750
623 1 4.073251 9.504251 207.735750
624 2 1.357750 4.073250 210.451251
625 1 4.073251 6.788750 210.451251
626 1 6.788751 9.504251 210.451251
627 2 1.357750 1.357750 213.166750
628 1 4.073250 4.073250 213.166750
629 2 6.788750 6.788750 213.166750
630 1 9.504251 9.504251 213.166750
631 1 4.073251 1.357750 215.882250
632 1 6.788750 4.073250 215.882250
633 2 9.504251 6.788750 215.882250
634 1 6.788750 1.357750 218.597751
635 1 9.504250 4.073250 218.597751
636 1 9.504251 1.357750 221.313250
637 1 1.357750 9.504251 210.451251
638 1 1.357750 6.788750 213.166751
639 1 4.073251 9.504251 213.166751
640 1 1.357750 4.073251 215.882250
641 1 4.073250 6.788750 215.882250
642 2 6.788750 9.504251 215.882250
643 1 1.357750 1.357750 218.597751
644 1 4.073251 4.073251 218.597751
645 1 6.788750 6.788750 218.597751
646 1 9.504251 9.504251 218.597751
647 1 4.073250 1.357750 221.313250
648 1 6.788750 4.073251 221.313250
649 1 9.504250 6.788750 221.313250
650 1 6.788750 1.357750 224.028750
651 1 9.504251 4.073251 224.028750
652 1 9.504251 1.357750 226.744251
653 1 1.357750 9.504250 215.882250
654 1 1.357750 6.788750 218.597751
655 1 4.073250 9.504250 218.597751
656 1 1.357750 4.073250 221.313250
657 1 4.073251 6.788750 221.313250
658 1 6.788750 9.504250 221.313250
659 2 1.357750 1.357750 224.028750
660 1 4.073250 4.073250 224.028750
661 2 6.788750 6.788750 224.028750
662 1 9.504250 9.504250 224.028750
663 1 4.073251 1.357750 226.744251
664 1 6.788750 4.073250 226.744251
665 1 9.504251 6.788750 226.744251
666 1 6.788751 1.357750 229.459750
667 1 9.504251 4.073250 229.459750
668 1 9.504251 1.357750 232.175250
669 1 1.357750 9.504251 221.313250
670 1 1.357750 6.788750 224.028750
671 1 4.073251 9.504251 224.028750
672 1 1.357750 4.073251 226.744251
673 1 4.073250 6.788750 226.744251
674 1 6.788750 9.504251 226.744251
675 1 1.357750 1.357750 229.459750
676 2 4.073251 4.073251 229.459750
677 2 6.788750 6.788750 229.459750
678 1 9.504251 9.504251 229.459750
679 1 4.073251 1.357750 232.175250
680 1 6.788751 4.073251 232.175250
681 1 9.504251 6.788750 232.175250
682 1 6.788750 1.357750 234.890751
683 1 9.504251 4.073251 234.890751
684 1 9.504251 1.357750 237.606251
685 1 1.357750 9.504251 226.744251
686 1 1.357750 6.788751 229.459750
687 1 4.073250 9.504251 229.459750
688 1 1.357750 4.073251 232.175250
689 1 4.073251 6.788751 232.175250
690 1 6.788750 9.504251 232.175250
691 1 1.357750 1.357750 234.890751
692 1 4.073251 4.073251 234.890751
693 1 6.788751 6.788751 234.890751
694 1 9.504251 9.504251 234.890751
695 1 4.073250 1.357750 237.606251
696 1 6.788750 4.073251 237.606251
697 1 9.504251 6.788751 237.606251
698 1 6.788750 1.357750 240.321750
699 1 9.504251 4.073251 240.321750
700 1 9.504250 1.357750 243.037251
701 2 1.357750 9.504251 232.175250
702 1 1.357750 6.788750 234.890751
703 1 4.073251 9.504251 234.890751
704 1 1.357750 4.073250 237.606251
705 1 4.073251 6.788750 237.606251
706 2 6.788751 9.504251 237.606251
707 1 1.357750 1.357750 240.321750
708 2 4.073250 4.073250 240.321750
709 1 6.788750 6.788750 240.321750
710 2 9.504251 9.504251 240.321750
711 1 4.073251 1.357750 243.037251
712 1 6.788750 4.073250 243.037251
713 1 9.504251 6.788750 243.037251
714 1 6.788750 1.357750 245.752750
715 1 9.504250 4.073250 245.752750
716 1 9.504251 1.357750 248.468250
717 1 1.357750 9.504251 237.606251
718 1 1.357750 6.788750 240.321750
719 1 4.073251 9.504251 240.321750
720 1 1.357750 4.073251 243.037251
721 1 4.073250 6.788750 243.037251
722 1 6.788750 9.504251 243.037251
723 1 1.357750 1.357750 245.752751
724 1 4.073251 4.073251 245.752751
725 1 6.788750 6.788750 245.752751
726 1 9.504251 9.504251 245.752751
727 1 4.073250 1.357750 248.468250
728 1 6.788750 4.073251 248.468250
729 1 9.504250 6.788750 248.468250
730 2 6.788750 1.357750 251.183751
731 1 9.504251 4.073251 251.183751
732 1 9.504250 1.357750 253.899250
733 2 1.357750 9.504250 243.037251
734 1 1.357750 6.788750 245.752750
735 1 4.073250 9.504250 245.752750
736 2 1.357750 4.073250 248.468250
737 1 4.073251 6.788750 248.468250
738 1 6.788750 9.504250 248.468250
739 2 1.357750 1.357750 251.183750
740 1 4.073250 4.073250 251.183750
741 1 6.788750 6.788750 251.183750
742 1 9.504250 9.504250 251.183750
743 1 4.073251 1.357750 253.899250
744 1 6.788750 4.073250 253.899250
745 1 9.504251 6.788750 253.899250
746 1 6.788750 1.357750 256.614751
747 1 9.504250 4.073250 256.614751
748 1 9.504251 1.357750 259.330251
749 1 1.357750 9.504251 248.468250
750 1 1.357750 6.788750 251.183751
751 1 4.073251 9.504251 251.183751
752 1 1.357750 4.073251 253.899250
753 1 4.073250 6.788750 253.899250
754 1 6.788750 9.504251 253.899250
755 2 1.357750 1.357750 256.614751
756 1 4.073251 4.073251 256.614751
757 2 6.788750 6.788750 256.614751
758 1 9.504251 9.504251 256.614751
759 1 4.073250 1.357750 259.330250
760 1 6.788750 4.073251 259.330250
761 1 9.504250 6.788750 259.330250
762 1 6.788751 1.357750 262.045750
763 1 9.504251 4.073251 262.045750
764 2 9.504251 1.357750 264.761251
765 1 1.357750 9.504250 253.899250
766 1 1.357750 6.788750 256.614751
767 1 4.073250 9.504250 256.614751
768 1 1.357750 4.073250 259.330250
769 2 4.073251 6.788750 259.330250
770 1 6.788750 9.504250 259.330250
771 1 1.357750 1.357750 262.045750
772 1 4.073250 4.073250 262.045750
773 1 6.788750 6.788750 262.045750
774 1 9.504250 9.504250 262.045750
775 1 4.073251 1.357750 264.761251
776 1 6.788751 4.073250 264.761251
777 1 9.504251 6.788750 264.761251
778 1 6.788751 1.357750 267.476751
779 1 9.504251 4.073250 267.476751
780 1 9.504251 1.357750 270.192250
781 1 1.357750 9.504251 259.330251
782 1 1.357750 6.788751 262.045750
783 1 4.073251 9.504251 262.045750
784 2 1.357750 4.073251 264.761251
785 1 4.073250 6.788751 264.761251
786 1 6.788750 9.504251 264.761251
787 1 1.357750 1.357750 267.476751
788 1 4.073251 4.073251 267.476751
789 1 6.788751 6.788751 267.476751
790 1 9.504251 9.504251 267.476751
791 1 4.073250 1.357750 270.192251
792 1 6.788751 4.073251 270.192251
793 1 9.504251 6.788751 270.192251
794 1 6.788750 1.357750 272.907750
795 1 9.504251 4.073251 272.907750
796 1 9.504250 1.357750 275.623250
797 1 1.357750 9.504251 264.761251
798 1 1.357750 6.788751 267.476751
799 1 4.073250 9.504251 267.476751
800 1 1.357750 4.073250 270.192251
801 1 4.073251 6.788751 270.192251
802 1 6.788751 9.504251 270.192251
803 1 1.357750 1.357750 272.907750
804 1 4.073250 4.073250 272.907750
805 1 6.788751 6.788751 272.907750
806 1 9.504251 9.504251 272.907750
807 1 4.073250 1.357750 275.623250
808 1 6.788750 4.073250 275.623250
809 1 9.504251 6.788751 275.623250
810 1 6.788750 1.357750 278.338750
811 1 9.504250 4.073250 278.338750
812 1 9.504251 1.357750 281.054250
813 1 1.357750 9.504251 270.192250
814 1 1.357750 6.788750 272.907750
815 1 4.073251 9.504251 272.907750
816 1 1.357750 4.073250 275.623250
817 1 4.073250 6.788750 275.623250
818 1 6.788751 9.504251 275.623250
819 1 1.357750 1.357750 278.338750
820 1 4.073250 4.073250 278.338750
821 2 6.788750 6.788750 278.338750
822 1 9.504251 9.504251 278.338750
823 1 4.073250 1.357750 281.054250
824 1 6.788750 4.073250 281.054250
825 1 9.504250 6.788750 281.054250
826 1 6.788751 1.357750 283.769751
827 1 9.504251 4.073250 283.769751
828 1 9.504251 1.357750 286.485250
829 1 1.357750 9.504250 275.623250
830 1 1.357750 6.788750 278.338750
831 1 4.073250 9.504250 278.338750
832 1 1.357750 4.073250 281.054250
833 1 4.073250 6.788750 281.054250
834 2 6.788750 9.504250 281.054250
835 1 1.357750 1.357750 283.769750
836 1 4.073250 4.073250 283.769750
837 1 6.788750 6.788750 283.769750
838 1 9.504250 9.504250 283.769750
839 1 4.073251 1.357750 286.485250
840 1 6.788751 4.073250 286.485250
841 1 9.504251 6.788750 286.485250
842 1 6.788751 1.357750 289.200750
843 1 9.504251 4.073250 289.200750
844 1 9.504251 1.357750 291.916250
845 1 1.357750 9.504251 281.054250
846 1 1.357750 6.788751 283.769751
847 1 4.073250 9.504251 283.769751
848 2 1.357750 4.073251 286.485250
849 1 4.073250 6.788751 286.485250
850 1 6.788750 9.504251 286.485250
851 1 1.357750 1.357750 289.200750
852 1 4.073251 4.073251 289.200750
853 1 6.788751 6.788751 289.200750
854 1 9.504251 9.504251 289.200750
855 1 4.073250 1.357750 291.916250
856 1 6.788751 4.073251 291.916250
857 1 9.504251 6.788751 291.916250
858 2 6.788750 1.357750 294.631750
859 1 9.504251 4.073251 294.631750
860 2 9.504251 1.357750 297.347251
861 2 1.357750 9.504251 286.485250
862 1 1.357750 6.788751 289.200750
863 1 4.073250 9.504251 289.200750
864 1 1.357750 4.073250 291.916250