LAMMPS data file via write_data, version 27 May 2021, timestep = 350

800 atoms
2 atom types

0 5.431 xlo xhi
0 5.431 ylo yhi
0 543.1 zlo zhi

Masses

1 28.0855
2 72.64

Atoms # atomic

1 1 1.357750435406759 1.357750435406731 1.355995872823306
2 1 4.073250435406746 4.073250435406697 1.355995872822893
3 1 4.073250435385773 1.357750435385565 4.071225974461282
4 1 1.357750435385695 4.073250435385659 4.071225974461264
5 1 1.357750435133844 1.357750435133703 6.786456076582418
6 1 4.073250435133818 4.073250435133661 6.786456076582653
7 1 4.073250434947182 1.357750434946978 9.501686178693888
8 1 1.357750434947201 4.073250434946996 9.501686178693909
9 1 1.357750435055457 1.357750435055225 12.216916280772828
10 1 4.073250435055439 4.073250435055235 12.216916280772553
11 1 4.073250435383767 1.357750435383512 14.932146382517930
12 1 1.357750435383724 4.073250435383534 14.932146382517940
13 1 1.357750435594018 1.357750435593805 17.647376484426157
14 1 4.073250435593990 4.073250435593767 17.647376484426236
15 1 4.073250435512039 1.357750435511947 20.362606586631905
16 1 1.357750435511996 4.073250435511958 20.362606586631877
17 1 1.357750435367189 1.357750435367315 23.077836688947322
18 1 4.073250435367145 4.073250435367246 23.077836688947336
19 1 4.073250435413359 1.357750435413580 25.793066790446836
20 1 1.357750435413347 4.073250435413560 25.793066790446836
21 1 1.357750435611479 1.357750435611778 28.508296891913641
22 1 4.073250435611401 4.073250435611687 28.508296891913290
23 1 4.073250435743788 1.357750435743998 31.223526994284121
24 1 1.357750435743682 4.073250435744075 31.223526994284089
25 1 1.357750435646091 1.357750435646378 33.938757096586876
26 1 4.073250435646106 4.073250435646377 33.938757096587508
27 1 4.073250435452475 1.357750435452506 36.653987198436724
28 1 1.357750435452366 4.073250435452619 36.653987198436717
29 1 1.357750435452623 1.357750435452630 39.369217300074894
30 1 4.073250435452662 4.073250435452667 39.369217300074325
31 1 4.073250435636508 1.357750435636458 42.084447402118897
32 1 1.357750435636556 4.073250435636402 42.084447402118911
33 1 1.357750435775247 1.357750435775093 44.799677504328073
34 1 4.073250435774971 4.073250435774796 44.799677504328081
35 1 4.073250435725699 1.357750435726055 47.514907606250716
36 1 1.357750435726255 4.073250435725487 47.514907606250738
37 1 1.357750435575837 1.357750435575631 50.230137707699470
38 1 4.073250435575201 4.073250435575023 50.230137707699420
39 1 4.073250435598261 1.357750435597267 52.945367809478498
40 1 1.357750435597449 4.073250435598096 52.945367809478512
41 1 1.357750435815783 1.357750435815613 55.660597911871335
42 1 4.073250435816496 4.073250435816340 55.660597911871143
43 1 4.073250435948891 1.357750435945261 58.375828014175688
44 1 1.357750435945353 4.073250435948738 58.375828014175696
45 1 1.357750435845456 1.357750435845355 61.091058115644849
46 1 4.073250435849106 4.073250435848998 61.091058115645041
47 1 4.073250435667798 1.357750435670469 63.806288217630247
48 1 1.357750435670610 4.073250435667659 63.806288217630275
49 1 1.357750435723600 1.357750435723447 66.521518319546260
50 1 4.073250435720889 4.073250435720738 66.521518319546232
51 1 4.073250436063184 1.357750436080005 69.236748421740032
52 1 1.357750436080124 4.073250436063040 69.236748421740032
53 1 1.357750436410963 1.357750436410850 71.951978523508870
54 1 4.073250436393581 4.073250436393470 71.951978523509013
55 1 4.073250436459460 1.357750436452807 74.667208625422788
56 1 1.357750436452929 4.073250436459317 74.667208625422802
57 1 1.357750436333421 1.357750436333366 77.382438727193673
58 1 4.073250436339634 4.073250436339604 77.382438727193801
59 1 4.073250436382351 1.357750436319227 80.097668829596330
60 1 1.357750436319132 4.073250436382443 80.097668829596316
61 1 1.357750436590623 1.357750436590804 82.812898931728554
62 1 4.073250436655182 4.073250436655347 82.812898931728711
63 1 4.073250436956155 1.357750436960691 85.528129033340520
64 1 1.357750436960471 4.073250436956370 85.528129033340520
65 1 1.357750437120270 1.357750437120492 88.243359134901425
66 1 4.073250437117372 4.073250437117578 88.243359134901155
67 1 4.073250437018684 1.357750437193448 90.958589237156332
68 1 1.357750437193314 4.073250437018794 90.958589237156332
69 1 1.357750437265825 1.357750437265862 93.673819339007110
70 1 4.073250437088254 4.073250437088279 93.673819339007338
71 1 4.073250437477006 1.357750437505990 96.389049441015487
72 1 1.357750437506039 4.073250437476932 96.389049441015487
73 1 1.357750437937362 1.357750437937242 99.104279542593389
74 1 4.073250437904125 4.073250437904006 99.104279542593062
75 1 4.073250438409023 1.357750438079974 101.819509644547921
76 1 1.357750438080103 4.073250438408908 101.819509644547907
77 1 1.357750438199491 1.357750438199438 104.534739746531926
78 1 4.073250438535290 4.073250438535245 104.534739746531727
79 1 4.073250438499771 1.357750438399764 107.249969848775478
80 1 1.357750438399757 4.073250438499776 107.249969848775450
81 1 1.357750438588209 1.357750438588306 109.965199950409612
82 1 4.073250438699390 4.073250438699520 109.965199950410025
83 1 4.073250438729634 1.357750439078529 112.680430051944256
84 1 1.357750439078372 4.073250438729783 112.680430051944256
85 1 1.357750439341196 1.357750439341333 115.395660153955589
86 1 4.073250438971954 4.073250438972091 115.395660153955347
87 1 4.073250439301770 1.357750439388571 118.110890256073887
88 1 1.357750439388500 4.073250439301804 118.110890256073887
89 1 1.357750439592782 1.357750439592704 120.826120358005355
90 1 4.073250439472664 4.073250439472579 120.826120358005596
91 1 4.073250439864968 1.357750439806989 123.541350459863523
92 1 1.357750439807186 4.073250439864790 123.541350459863523
93 1 1.357750440144880 1.357750440144621 126.256580561600643
94 1 4.073250440262321 4.073250440262033 126.256580561600501
95 1 4.073250440453904 1.357750440599806 128.971810663694328
96 1 1.357750440600128 4.073250440453598 128.971810663694356
97 1 1.357750440807812 1.357750440807522 131.687040765760287
98 1 4.073250440746345 4.073250440746041 131.687040765760230
99 1 4.073250441149344 1.357750440889704 134.402270867100327
100 1 1.357750440889922 4.073250441149111 134.402270867100327
101 1 1.357750441309908 1.357750441309740 137.117500968868313
102 1 4.073250441432907 4.073250441432766 137.117500968868427
103 1 4.073250441899347 1.357750441678045 139.832731071107958
104 1 1.357750441678140 4.073250441899282 139.832731071107986
105 1 1.357750442038498 1.357750442038535 142.547961173561561
106 1 4.073250442172065 4.073250442172115 142.547961173561106
107 1 4.073250442225472 1.357750442439577 145.263191274659391
108 1 1.357750442439450 4.073250442225625 145.263191274659391
109 1 1.357750442556570 1.357750442556830 147.978421376525858
110 1 4.073250442596551 4.073250442596799 147.978421376526512
111 1 4.073250443006415 1.357750442730332 150.693651478217646
112 1 1.357750442730011 4.073250443006746 150.693651478217646
113 1 1.357750443181527 1.357750443181866 153.408881580492874
114 1 4.073250443192853 4.073250443193168 153.408881580492420
115 1 4.073250443544381 1.357750443359767 156.124111682190886
116 1 1.357750443359456 4.073250443544710 156.124111682190915
117 1 1.357750443751113 1.357750443751383 158.839341783473827
118 1 4.073250443525138 4.073250443525443 158.839341783473941
119 1 4.073250443558941 1.357750444146806 161.554571885214017
120 1 1.357750444146583 4.073250443559144 161.554571885214017
121 1 1.357750443868966 1.357750443869118 164.269801988163351
122 1 4.073250444403426 4.073250444403546 164.269801988163465
123 1 4.073250444285499 1.357750444527658 166.985032089420514
124 1 1.357750444527568 4.073250444285629 166.985032089420486
125 1 1.357750444490403 1.357750444490481 169.700262190747253
126 1 4.073250444708709 4.073250444708790 169.700262190746884
127 1 4.073250444995911 1.357750444474690 172.415492292774900
128 1 1.357750444474651 4.073250444995931 172.415492292774900
129 1 1.357750445333251 1.357750445333232 175.130722394564003
130 1 4.073250444466092 4.073250444466051 175.130722394564174
131 1 4.073250445182643 1.357750445018014 177.845952496850970
132 1 1.357750445018091 4.073250445182578 177.845952496850970
133 1 1.357750445214620 1.357750445214507 180.561182597970628
134 1 4.073250445252755 4.073250445252642 180.561182597970486
135 1 4.073250445265885 1.357750445256051 183.276412700214252
136 1 1.357750445256183 4.073250445265771 183.276412700214252
137 1 1.357750445356120 1.357750445356038 185.991642801968311
138 1 4.073250445101980 4.073250445101898 185.991642801968453
139 1 4.073250445360284 1.357750445132233 188.706872903975409
140 1 1.357750445132304 4.073250445360230 188.706872903975409
141 1 1.357750445476461 1.357750445476440 191.422103005477311
142 1 4.073250445311843 4.073250445311824 191.422103005477311
143 1 4.073250445272235 1.357750445826424 194.137333106901906
144 1 1.357750445826450 4.073250445272208 194.137333106901934
145 1 1.357750445311277 1.357750445311254 196.852563208527954
146 1 4.073250445873207 4.073250445873180 196.852563208527897
147 1 4.073250445447353 1.357750445733573 199.567793310507170
148 1 1.357750445733637 4.073250445447311 199.567793310507170
149 1 1.357750445566529 1.357750445566491 202.283023412416043
150 1 4.073250445696009 4.073250445695948 202.283023412416014
151 1 4.073250445471515 1.357750445965279 204.998253513513703
152 1 1.357750445965361 4.073250445471460 204.998253513513674
153 1 1.357750445474282 1.357750445474211 207.713483616183680
154 1 4.073250446061107 4.073250446061038 207.713483616184021
155 1 4.073250445515678 1.357750445894501 210.428713717323717
156 1 1.357750445894535 4.073250445515664 210.428713717323745
157 1 1.357750445520318 1.357750445520394 213.143943818708607
158 1 4.073250445638674 4.073250445638733 213.143943818708351
159 1 4.073250445497123 1.357750445523788 215.859173921143935
160 1 1.357750445523642 4.073250445497283 215.859173921143963
161 1 1.357750445485492 1.357750445485784 218.574404022200952
162 1 4.073250445607916 4.073250445608193 218.574404022200838
163 1 4.073250445518480 1.357750445615154 221.289634123986957
164 1 1.357750445614814 4.073250445518815 221.289634123986986
165 1 1.357750445505647 1.357750445505985 224.004864225106815
166 1 4.073250445384806 4.073250445385113 224.004864225107241
167 1 4.073250445536230 1.357750444963278 226.720094327339751
168 1 1.357750444962976 4.073250445536526 226.720094327339751
169 1 1.357750445597107 1.357750445597300 229.435324429445103
170 1 4.073250444672502 4.073250444672662 229.435324429444279
171 1 4.073250448346698 1.357750441912813 232.150554529518587
172 1 1.357750441912781 4.073250448346768 232.150554529518615
173 1 1.357750459256199 1.357750459256126 234.865784630605049
174 1 4.073250430898120 4.073250430898056 234.865784630605816
175 1 4.073250597933697 1.357750291770641 237.581014734020641
176 1 1.357750291770799 4.073250597933516 237.581014734020613
177 1 1.357751124179728 1.357751124179466 240.296244836236326
178 1 4.073249764802239 4.073249764801964 240.296244836235957
179 1 4.073257835985543 1.357743052355857 243.011474937245254
180 1 1.357743052356191 4.073257835985197 243.011474937245254
181 1 1.357783297221021 1.357783297220607 245.726705039575137
182 1 4.073217590895419 4.073217590895005 245.726705039575904
183 1 4.073607803007125 1.357393084992044 248.441935115336292
184 1 1.357393084992597 4.073607803006546 248.441935115336292
185 1 1.359338667777290 1.359338667776391 251.157157662210096
186 1 4.071662219731669 4.071662219730828 251.157157662205634
187 1 4.090500217730161 1.340500668967362 253.870294275594517
188 1 1.340500668968680 4.090500217728792 253.870294275594318
189 1 1.340500668644189 1.340500668642696 256.643706144406451
190 1 4.090500217399725 4.090500217398239 256.643706144457042
191 1 4.071662218791084 1.359338666837100 259.356842757817844
192 1 1.359338666838014 4.071662218790188 259.356842757817901
193 1 1.357393083629953 1.357393083629486 262.072065304692899
194 1 4.073607801645090 4.073607801644590 262.072065304691193
195 1 4.073217589189715 1.357783295514946 264.787295380451383
196 1 1.357783295515165 4.073217589189510 264.787295380451326
197 1 1.357743050149637 1.357743050149591 267.502525482778481
198 1 4.073257833778776 4.073257833778784 267.502525482778765
199 1 4.073249761870451 1.357751121247908 270.217755583776977
200 1 1.357751121247829 4.073249761870500 270.217755583776977
201 1 1.357750288126603 1.357750288126728 272.932985685982260
202 1 4.073250594289479 4.073250594289598 272.932985685981805
203 1 4.073250426751388 1.357750455109575 275.648215789392111
204 1 1.357750455109444 4.073250426751494 275.648215789392111
205 1 1.357750437440709 1.357750437440796 278.363445890480932
206 1 4.073250443874618 4.073250443874707 278.363445890481614
207 1 4.073250439879154 1.357750440803767 281.078675990559418
208 1 1.357750440803699 4.073250439879208 281.078675990559475
209 1 1.357750439738621 1.357750439738623 283.793906092673581
210 1 4.073250440311843 4.073250440311812 283.793906092672728
211 1 4.073250439680709 1.357750439801422 286.509136194908308
212 1 1.357750439801476 4.073250439680643 286.509136194908308
213 1 1.357750439520553 1.357750439520464 289.224366296027256
214 1 4.073250439424209 4.073250439424109 289.224366296027711
215 1 4.073250439217431 1.357750439094930 291.939596397806952
216 1 1.357750439095022 4.073250439217318 291.939596397807009
217 1 1.357750438729897 1.357750438729841 294.654826498856551
218 1 4.073250438703364 4.073250438703283 294.654826498856323
219 1 4.073250438305730 1.357750438187374 297.370056601288582
220 1 1.357750438187427 4.073250438305700 297.370056601288582
221 1 1.357750438109985 1.357750438109995 300.085286702674068
222 1 4.073250437731194 4.073250437731193 300.085286702674409
223 1 4.073250438018611 1.357750437431827 302.800516803823086
224 1 1.357750437431780 4.073250438018683 302.800516803823143
225 1 1.357750437756023 1.357750437756127 305.515746906493632
226 1 4.073250437262198 4.073250437262321 305.515746906493348
227 1 4.073250437180723 1.357750437051406 308.230977007594845
228 1 1.357750437051236 4.073250437180914 308.230977007594788
229 1 1.357750436706187 1.357750436706381 310.946207109495731
230 1 4.073250436419934 4.073250436420119 310.946207109495845
231 1 4.073250436405609 1.357750435843834 313.661437211468808
232 1 1.357750435843688 4.073250436405767 313.661437211468865
233 1 1.357750436211502 1.357750436211619 316.376667313087978
234 1 4.073250435657290 4.073250435657358 316.376667313088035
235 1 4.073250435740368 1.357750435904980 319.091897414511664
236 1 1.357750435905002 4.073250435740404 319.091897414511607
237 1 1.357750435457169 1.357750435457117 321.807127516016749
238 1 4.073250435685199 4.073250435685144 321.807127516016521
239 1 4.073250434954135 1.357750435208199 324.522357618033027
240 1 1.357750435208286 4.073250434954058 324.522357618033027
241 1 1.357750434564019 1.357750434563900 327.237587719792145
242 1 4.073250434573746 4.073250434573668 327.237587719792316
243 1 4.073250434353538 1.357750434315316 329.952817822039094
244 1 1.357750434315372 4.073250434353409 329.952817822039094
245 1 1.357750434209721 1.357750434209656 332.668047923150368
246 1 4.073250434374235 4.073250434374165 332.668047923150255
247 1 4.073250433717527 1.357750434584573 335.383278025436198
248 1 1.357750434584675 4.073250433717443 335.383278025436198
249 1 1.357750433514070 1.357750433513983 338.098508127217258
250 1 4.073250434035317 4.073250434035214 338.098508127217258
251 1 4.073250433426142 1.357750433207745 340.813738229250930
252 1 1.357750433207829 4.073250433426128 340.813738229250930
253 1 1.357750433223687 1.357750433223688 343.528968330581165
254 1 4.073250432981660 4.073250432981644 343.528968330580938
255 1 4.073250433398056 1.357750432863692 346.244198431844950
256 1 1.357750432863662 4.073250433398102 346.244198431844950
257 1 1.357750433358161 1.357750433358235 348.959428534798121
258 1 4.073250432770521 4.073250432770544 348.959428534798178
259 1 4.073250432627360 1.357750432853321 351.674658636534730
260 1 1.357750432853327 4.073250432627408 351.674658636534730
261 1 1.357750432230824 1.357750432230771 354.389888737810963
262 1 4.073250432415725 4.073250432415710 354.389888737811191
263 1 4.073250432140799 1.357750432129371 357.105118839501131
264 1 1.357750432129464 4.073250432140656 357.105118839501131
265 1 1.357750432120655 1.357750432120464 359.820348941772011
266 1 4.073250432397121 4.073250432396882 359.820348941771726
267 1 4.073250432353050 1.357750432312805 362.535579043469568
268 1 1.357750432313152 4.073250432352779 362.535579043469568
269 1 1.357750432168532 1.357750432168260 365.250809145338678
270 1 4.073250431954581 4.073250431954316 365.250809145338792
271 1 4.073250431703290 1.357750431569420 367.966039246444439
272 1 1.357750431569634 4.073250431703097 367.966039246444382
273 1 1.357750431354162 1.357750431354094 370.681269348896649
274 1 4.073250431575341 4.073250431575294 370.681269348896592
275 1 4.073250431747327 1.357750431624277 373.396499451132513
276 1 1.357750431624271 4.073250431747295 373.396499451132513
277 1 1.357750431849214 1.357750431849197 376.111729552896008
278 1 4.073250432108599 4.073250432108598 376.111729552895952
279 1 4.073250431904218 1.357750431965695 378.826959654227210
280 1 1.357750431965700 4.073250431904230 378.826959654227153
281 1 1.357750431690574 1.357750431690582 381.542189756296182
282 1 4.073250431544332 4.073250431544339 381.542189756296352
283 1 4.073250431492115 1.357750431374772 384.257419858391529
284 1 1.357750431374741 4.073250431492139 384.257419858391586
285 1 1.357750431538484 1.357750431538538 386.972649960141950
286 1 4.073250431596239 4.073250431596287 386.972649960141723
287 1 4.073250431742040 1.357750431862261 389.687880062004865
288 1 1.357750431862209 4.073250431742135 389.687880062004865
289 1 1.357750431823968 1.357750431824068 392.403110163936788
290 1 4.073250431737241 4.073250431737375 392.403110163937129
291 1 4.073250431300385 1.357750431669831 395.118340266052655
292 1 1.357750431669608 4.073250431300574 395.118340266052655
293 1 1.357750431473064 1.357750431473271 397.833570368054438
294 1 4.073250431124352 4.073250431124538 397.833570368054097
295 1 4.073250431510163 1.357750431399150 400.548800469585217
296 1 1.357750431398987 4.073250431510335 400.548800469585217
297 1 1.357750431692140 1.357750431692181 403.264030571218996
298 1 4.073250431792127 4.073250431792206 403.264030571219052
299 1 4.073250431978410 1.357750431642484 405.979260673464012
300 1 1.357750431642551 4.073250431978297 405.979260673464012
301 1 1.357750431463080 1.357750431462878 408.694490775457609
302 1 4.073250431792008 4.073250431791727 408.694490775457609
303 1 4.073250431516406 1.357750431549306 411.409720877411871
304 1 1.357750431549713 4.073250431516076 411.409720877411871
305 1 1.357750431792446 1.357750431792002 414.124950978989887
306 1 4.073250431763394 4.073250431762957 414.124950978990000
307 1 4.073250432074219 1.357750432251392 416.840181080989225
308 1 1.357750432251813 4.073250432073755 416.840181080989225
309 1 1.357750432363772 1.357750432363422 419.555411182834632
310 1 4.073250432189107 4.073250432188736 419.555411182834462
311 1 4.073250432056457 1.357750432059134 422.270641285089027
312 1 1.357750432059350 4.073250432056229 422.270641285089027
313 1 1.357750431904235 1.357750431904207 424.985871386650388
314 1 4.073250431899919 4.073250431899853 424.985871386650331
315 1 4.073250432188268 1.357750432123838 427.701101488273139
316 1 1.357750432123751 4.073250432188400 427.701101488273139
317 1 1.357750432649821 1.357750432649992 430.416331590408504
318 1 4.073250432713099 4.073250432713282 430.416331590408561
319 1 4.073250433005676 1.357750432999642 433.131561692815353
320 1 1.357750432999453 4.073250433005884 433.131561692815353
321 1 1.357750432926613 1.357750432926777 435.846791794584419
322 1 4.073250432933182 4.073250432933338 435.846791794584476
323 1 4.073250432755971 1.357750432773412 438.562021896489398
324 1 1.357750432773356 4.073250432756046 438.562021896489398
325 1 1.357750432868975 1.357750432868929 441.277251998254940
326 1 4.073250432852010 4.073250432851971 441.277251998254599
327 1 4.073250433270807 1.357750433273437 443.992482100444306
328 1 1.357750433273563 4.073250433270688 443.992482100444249
329 1 1.357750433647302 1.357750433647167 446.707712202366167
330 1 4.073250433644529 4.073250433644359 446.707712202366736
331 1 4.073250433634315 1.357750433630574 449.422942304358912
332 1 1.357750433630748 4.073250433634191 449.422942304358969
333 1 1.357750433432712 1.357750433432536 452.138172405830915
334 1 4.073250433436264 4.073250433436069 452.138172405830744
335 1 4.073250433452086 1.357750433451103 454.853402508140277
336 1 1.357750433451295 4.073250433451937 454.853402508140277
337 1 1.357750433762506 1.357750433762403 457.568632610524674
338 1 4.073250433763267 4.073250433763203 457.568632610524617
339 1 4.073250434114100 1.357750434114670 460.283862712300220
340 1 1.357750434114704 4.073250434114031 460.283862712300277
341 1 1.357750434194348 1.357750434194340 462.999092813741129
342 1 4.073250434193763 4.073250434193763 462.999092813741129
343 1 4.073250434063920 1.357750434064148 465.714322915662251
344 1 1.357750434064093 4.073250434063957 465.714322915662251
345 1 1.357750434060915 1.357750434061033 468.429553017877652
346 1 4.073250434060804 4.073250434060895 468.429553017877765
347 1 4.073250434288022 1.357750434288093 471.144783119925535
348 1 1.357750434287983 4.073250434288163 471.144783119925535
349 1 1.357750434527208 1.357750434527326 473.860013221571251
350 1 4.073250434527348 4.073250434527420 473.860013221571194
351 1 4.073250434539804 1.357750434539874 476.575243323412678
352 1 1.357750434539783 4.073250434539926 476.575243323412678
353 1 1.357750434406274 1.357750434406360 479.290473425713799
354 1 4.073250434406317 4.073250434406400 479.290473425713458
355 1 4.073250434453748 1.357750434453778 482.005703528076594
356 1 1.357750434453741 4.073250434453801 482.005703528076594
357 1 1.357750434769438 1.357750434769444 484.720933629542458
358 1 4.073250434769435 4.073250434769498 484.720933629542969
359 1 4.073250435100421 1.357750435100452 487.436163731046861
360 1 1.357750435100394 4.073250435100437 487.436163731046861
361 1 1.357750435208510 1.357750435208430 490.151393833368672
362 1 4.073250435208459 4.073250435208448 490.151393833368388
363 1 4.073250435090995 1.357750435090826 492.866623935581686
364 1 1.357750435090946 4.073250435090845 492.866623935581629
365 1 1.357750434988780 1.357750434988499 495.581854037496953
366 1 4.073250434988666 4.073250434988460 495.581854037496896
367 1 4.073250435146701 1.357750435146385 498.297084139234244
368 1 1.357750435146684 4.073250435146375 498.297084139234244
369 1 1.357750435463298 1.357750435462937 501.012314241310662
370 1 4.073250435463260 4.073250435462900 501.012314241311060
371 1 4.073250435619673 1.357750435619312 503.727544343407942
372 1 1.357750435619584 4.073250435619355 503.727544343407942
373 1 1.357750435514821 1.357750435514629 506.442774445533644
374 1 4.073250435514768 4.073250435514579 506.442774445533360
375 1 4.073250435329718 1.357750435329647 509.158004547170094
376 1 1.357750435329673 4.073250435329667 509.158004547170094
377 1 1.357750435319578 1.357750435319668 511.873234648835023
378 1 4.073250435319514 4.073250435319647 511.873234648835137
379 1 4.073250435518662 1.357750435518865 514.588464751134097
380 1 1.357750435518600 4.073250435518886 514.588464751134211
381 1 1.357750435688644 1.357750435688998 517.303694853548109
382 1 4.073250435688568 4.073250435688940 517.303694853547768
383 1 4.073250435646164 1.357750435646446 520.018924955237594
384 1 1.357750435646110 4.073250435646495 520.018924955237480
385 1 1.357750435449733 1.357750435449926 522.734155057047360
386 1 4.073250435449728 4.073250435449962 522.734155057047360
387 1 4.073250435360677 1.357750435360742 525.449385158872587
388 1 1.357750435360624 4.073250435360740 525.449385158872587
389 1 1.357750435527083 1.357750435527048 528.164615261117774
390 1 4.073250435527024 4.073250435527045 528.164615261117660
391 1 4.073250435713435 1.357750435713341 530.879845362947322
392 1 1.357750435713428 4.073250435713315 530.879845362947322
393 1 1.357750435660779 1.357750435660654 533.595075464767774
394 1 4.073250435660746 4.073250435660590 533.595075464767433
395 1 4.073250435415418 1.357750435415219 536.310305566458283
396 1 1.357750435415346 4.073250435415281 536.310305566458283
397 1 1.357750435206182 1.357750435206124 539.025535668872976
398 1 4.073250435206114 4.073250435206106 539.025535668873431
399 1 4.073250435238458 1.357750435238395 541.740765771167617
400 1 1.357750435238420 4.073250435238404 541.740765771167730
401 1 0.000000435391308 0.000000435391294 543.098380822160379
402 1 2.715500435391153 2.715500435391235 543.098380822160266
403 1 2.715500435410947 0.000000435410881 2.713610923618277
404 1 0.000000435410838 2.715500435410986 2.713610923618287
405 1 0.000000435178597 0.000000435178731 5.428841025454200
406 1 2.715500435178675 2.715500435178807 5.428841025454172
407 1 2.715500434962379 0.000000434962620 8.144071127593103
408 1 0.000000434962485 2.715500434962551 8.144071127593113
409 1 0.000000435021839 0.000000435022011 10.859301229683727
410 1 2.715500435021673 2.715500435021899 10.859301229683748
411 1 2.715500435333948 0.000000435334023 13.574531331551666
412 1 0.000000435333797 2.715500435334136 13.574531331551665
413 1 0.000000435576262 0.000000435576475 16.289761433401491
414 1 2.715500435576267 2.715500435576482 16.289761433401473
415 1 2.715500435526816 0.000000435527014 19.004991535330060
416 1 0.000000435526850 2.715500435526974 19.004991535330078
417 1 0.000000435373606 0.000000435373639 21.720221637899954
418 1 2.715500435373629 2.715500435373660 21.720221637899936
419 1 2.715500435391698 0.000000435391625 24.435451739653555
420 1 0.000000435391734 2.715500435391585 24.435451739653576
421 1 0.000000435583035 0.000000435582791 27.150681841175317
422 1 2.715500435582831 2.715500435582591 27.150681841175246
423 1 2.715500435742338 0.000000435741821 29.865911942915243
424 1 0.000000435742163 2.715500435742022 29.865911942915250
425 1 0.000000435676385 0.000000435676067 32.581142045501196
426 1 2.715500435676579 2.715500435676232 32.581142045501082
427 1 2.715500435475532 0.000000435475412 35.296372147473541
428 1 0.000000435475702 2.715500435475234 35.296372147473541
429 1 0.000000435439431 0.000000435439298 38.011602249200813
430 1 2.715500435439291 2.715500435439149 38.011602249200784
431 1 2.715500435606408 0.000000435606266 40.726832350973631
432 1 0.000000435606227 2.715500435606401 40.726832350973623
433 1 0.000000435762928 0.000000435763050 43.442062453164489
434 1 2.715500435762879 2.715500435762996 43.442062453164262
435 1 2.715500435741794 0.000000435741947 46.157292555323643
436 1 0.000000435741779 2.715500435741933 46.157292555323643
437 1 0.000000435590187 0.000000435590383 48.872522657110437
438 1 2.715500435590164 2.715500435590374 48.872522657110551
439 1 2.715500435581919 0.000000435582067 51.587752758482722
440 1 0.000000435581858 2.715500435582090 51.587752758482722
441 1 0.000000435789468 0.000000435789655 54.302982860782429
442 1 2.715500435789392 2.715500435789566 54.302982860782869
443 1 2.715500435947355 0.000000435947426 57.018212963173880
444 1 0.000000435947265 2.715500435947523 57.018212963173902
445 1 0.000000435875142 0.000000435875277 59.733443065149686
446 1 2.715500435875288 2.715500435875415 59.733443065149324
447 1 2.715500435684414 0.000000435684659 62.448673166601175
448 1 0.000000435684562 2.715500435684499 62.448673166601168
449 1 0.000000435688045 0.000000435688147 65.163903268655417
450 1 2.715500435687907 2.715500435688042 65.163903268653215
451 1 2.715500436007370 0.000000436007341 67.879133370701837
452 1 0.000000436007204 2.715500436007537 67.879133370701851
453 1 0.000000436361550 0.000000436361690 70.594363472628814
454 1 2.715500436361651 2.715500436361784 70.594363472629837
455 1 2.715500436458376 0.000000436458608 73.309593574456557
456 1 0.000000436458461 2.715500436458476 73.309593574456571
457 1 0.000000436348230 0.000000436348332 76.024823676176339
458 1 2.715500436348229 2.715500436348347 76.024823676185505
459 1 2.715500436331668 0.000000436331738 78.740053778292790
460 1 0.000000436331706 2.715500436331689 78.740053778292818
461 1 0.000000436575007 0.000000436574919 81.455283880663401
462 1 2.715500436575114 2.715500436574990 81.455283880661995
463 1 2.715500436918000 0.000000436917880 84.170513982450885
464 1 0.000000436918070 2.715500436917836 84.170513982450871
465 1 0.000000437108763 0.000000437108586 86.885744083968518
466 1 2.715500437108620 2.715500437108441 86.885744083941361
467 1 2.715500437104974 0.000000437104625 89.600974185810401
468 1 0.000000437104821 2.715500437104791 89.600974185810415
469 1 0.000000437146895 0.000000437146770 92.316204288014205
470 1 2.715500437146905 2.715500437146788 92.316204288012486
471 1 2.715500437427806 0.000000437427783 95.031434390018433
472 1 0.000000437427802 2.715500437427781 95.031434390018447
473 1 0.000000437853875 0.000000437853985 97.746664491795059
474 1 2.715500437853951 2.715500437854050 97.746664491853338
475 1 2.715500438204971 0.000000438205217 100.461894593825932
476 1 0.000000438205033 2.715500438205129 100.461894593825932
477 1 0.000000438351971 0.000000438352116 103.177124695701238
478 1 2.715500438351845 2.715500438351951 103.177124695710688
479 1 2.715500438429665 0.000000438429622 105.892354798058037
480 1 0.000000438429559 2.715500438429716 105.892354798058051
481 1 0.000000438607898 0.000000438607897 108.607584899472016
482 1 2.715500438608016 2.715500438607981 108.607584899387462
483 1 2.715500438862132 0.000000438862120 111.322815000892433
484 1 0.000000438862235 2.715500438862021 111.322815000892433
485 1 0.000000439120426 0.000000439120292 114.038045102826160