8
Atoms. Timestep: 0
1 0 0 0
1 2.715 2.715 0
1 2.715 0 2.715
1 0 2.715 2.715
1 1.3575 1.3575 1.3575
1 4.0725 4.0725 1.3575
1 4.0725 1.3575 4.0725
1 1.3575 4.0725 4.0725
