8
Atoms. Timestep: 0
1 0 0 0
1 2.715 2.715 0
1 2.715 0 2.715
1 0 2.715 2.715
1 1.3575 1.3575 1.3575
1 4.0725 4.0725 1.3575
1 4.0725 1.3575 4.0725
1 1.3575 4.0725 4.0725
8
Atoms. Timestep: 100
1 0.0198156 -0.0190184 0.0221771
1 2.71763 2.74244 -0.0274206
1 2.71088 0.0262403 2.68453
1 -0.00331215 2.67498 2.72321
1 1.35772 1.38626 1.3335
1 4.06722 4.06837 1.38739
1 4.03804 1.32586 4.11037
1 1.38217 4.08454 4.05692
8
Atoms. Timestep: 200
1 -0.00280499 -0.0128824 -0.00676697
1 2.72491 2.72806 -0.0216911
1 2.7269 -0.00809342 2.7167
1 -0.00708053 2.71653 2.71604
1 1.32084 1.36555 1.36677
1 4.10142 4.07173 1.37581
1 4.09332 1.35716 4.07414
1 1.33343 4.0725 4.06968
8
Atoms. Timestep: 300
1 -0.00333285 0.0326933 -0.0146109
1 2.70303 2.6738 0.0298759
1 2.7114 -0.013271 2.7314
1 0.0200115 2.73734 2.6856
1 1.39691 1.32463 1.37388
1 4.02988 4.08555 1.32356
1 4.05457 1.3855 4.05292
1 1.37884 4.06587 4.10772
8
Atoms. Timestep: 400
1 -0.0131728 7.66187e-05 -0.0127974
1 2.72017 2.71554 0.0141334
1 2.71687 -0.0108367 2.72907
1 -0.00533664 2.73556 2.72539
1 1.34627 1.34856 1.36661
1 4.09339 4.07112 1.35005
1 4.1069 1.36388 4.05432
1 1.32653 4.06826 4.06403
8
Atoms. Timestep: 500
1 0.0108264 -0.0160695 0.0266262
1 2.71677 2.74252 -0.00924245
1 2.70473 0.0294409 2.6922
1 -0.0103326 2.68487 2.74336
1 1.36663 1.38608 1.32515
1 4.07298 4.05896 1.37071
1 4.05424 1.32431 4.09865
1 1.37601 4.08315 4.04309
8
Atoms. Timestep: 600
1 0.00733765 -0.00662059 0.0185497
1 2.71258 2.72791 -0.0161702
1 2.71581 0.00990134 2.70784
1 -0.00258126 2.70015 2.71825
1 1.3509 1.3672 1.3469
1 4.07463 4.07221 1.36802
1 4.05872 1.34491 4.08214
1 1.37531 4.07898 4.06465
8
Atoms. Timestep: 700
1 -0.0110772 0.0135287 -0.0237917
1 2.71675 2.69485 -0.000362779
1 2.73265 -0.0309566 2.74441
1 0.0075808 2.74379 2.68671
1 1.33138 1.33303 1.38875
1 4.08497 4.08657 1.348
1 4.09604 1.39355 4.04621
1 1.33513 4.06075 4.10069
8
Atoms. Timestep: 800
1 0.00485849 0.0191456 -0.0145349
1 2.7116 2.68774 0.0200341
1 2.70942 -0.00489487 2.71294
1 0.0156806 2.71947 2.6919
1 1.3954 1.34203 1.36628
1 4.0328 4.08562 1.3419
1 4.0487 1.3743 4.07208
1 1.37531 4.07322 4.09918
8
Atoms. Timestep: 900
1 0.00160842 -0.0284504 -0.00029087
1 2.73206 2.74723 -0.0139818
1 2.71286 0.0124152 2.69348
1 -0.0154156 2.70433 2.75255
1 1.33417 1.38969 1.34808
1 4.10582 4.05817 1.38416
1 4.10004 1.33006 4.08864
1 1.32274 4.08401 4.0365
8
Atoms. Timestep: 1000
1 0.00676306 -0.00320705 0.0260284
1 2.70891 2.73029 -0.00457025
1 2.70859 0.0271006 2.69724
1 -0.00309069 2.69518 2.73011
1 1.37528 1.37513 1.33192
1 4.06119 4.06048 1.35786
1 4.04804 1.33273 4.09405
1 1.38847 4.07998 4.05685
8
Atoms. Timestep: 1100
1 -0.0114853 0.0202025 -0.00100385
1 2.70455 2.70344 0.00595694
1 2.7243 -0.0158813 2.7503
1 0.00741504 2.74011 2.69154
1 1.3458 1.32672 1.3732
1 4.07903 4.08445 1.34104
1 4.0821 1.38064 4.04085
1 1.36309 4.05958 4.08698
8
Atoms. Timestep: 1200
1 -0.00759715 0.0153266 -0.0152915
1 2.71754 2.70117 0.00776815
1 2.72286 -0.0213448 2.74177
1 0.00342617 2.73601 2.69477
1 1.34624 1.33698 1.3724
1 4.07962 4.08476 1.34305
1 4.08802 1.38743 4.0497
1 1.34508 4.05956 4.09459
8
Atoms. Timestep: 1300
1 0.0202173 -0.0101739 0.00543329
1 2.7225 2.72044 -0.001309
1 2.70165 0.0185801 2.67822
1 -0.000862222 2.68763 2.73083
1 1.38689 1.38267 1.34277
1 4.04698 4.07185 1.37046
1 4.04382 1.33663 4.10081
1 1.37383 4.09234 4.06188
8
Atoms. Timestep: 1400
1 0.00198493 -0.0317238 -0.00268422
1 2.73215 2.74067 -0.0204958
1 2.71951 0.00814596 2.68965
1 -0.0117074 2.70356 2.74843
1 1.32858 1.39394 1.3526
1 4.10326 4.05912 1.38498
1 4.1001 1.3377 4.09313
1 1.32127 4.08987 4.04314
8
Atoms. Timestep: 1500
1 -0.00562692 0.0230233 0.00271994
1 2.69933 2.69481 0.0128204
1 2.71892 0.00087196 2.72816
1 0.0177852 2.72305 2.68529
1 1.38311 1.33669 1.36141
1 4.04301 4.08179 1.337
1 4.04876 1.37467 4.06717
1 1.39016 4.06674 4.09497
8
Atoms. Timestep: 1600
1 -0.0144394 0.0226245 -0.00948521
1 2.70776 2.70771 0.00622792
1 2.72578 -0.0194674 2.7575
1 0.00584201 2.74702 2.68802
1 1.33696 1.3237 1.37928
1 4.09095 4.0864 1.34252
1 4.09161 1.38171 4.03745
1 1.35114 4.05153 4.08904
8
Atoms. Timestep: 1700
1 0.00795011 -0.00180463 0.0118861
1 2.72349 2.73278 -0.00578181
1 2.70714 0.0121121 2.70502
1 -0.0128174 2.70727 2.73335
1 1.35683 1.37336 1.34122
1 4.0807 4.06456 1.36056
1 4.07011 1.34092 4.08126
1 1.36189 4.07207 4.06315
8
Atoms. Timestep: 1800
1 0.0189823 -0.0164948 0.0143255
1 2.72273 2.73037 -0.00453767
1 2.70063 0.0248225 2.67572
1 -0.00660756 2.6879 2.74851
1 1.37942 1.3871 1.33652
1 4.05717 4.06226 1.37504
1 4.0543 1.32662 4.09995
1 1.36798 4.09753 4.04657
8
Atoms. Timestep: 1900
1 -0.0135883 -0.00926733 -0.0201557
1 2.721 2.70876 0.00280624
1 2.73044 -0.0176877 2.72669
1 0.00322435 2.72847 2.71294
1 1.33565 1.35415 1.37199
1 4.09014 4.07538 1.35823
1 4.10648 1.38303 4.06599
1 1.32092 4.07643 4.07513
8
Atoms. Timestep: 2000
1 -0.00431386 0.0275771 -0.00655252
1 2.69897 2.67963 0.0190016
1 2.72067 -0.0132782 2.73982
1 0.0252086 2.72501 2.6681
1 1.38371 1.32708 1.37372
1 4.03592 4.09799 1.33478
1 4.04423 1.39077 4.05726
1 1.38912 4.0642 4.10848
8
Atoms. Timestep: 2100
1 -0.000333594 -0.00524788 0.00499619
1 2.72153 2.73346 -0.019822
1 2.71972 -0.0032859 2.72162
1 -0.0115662 2.71956 2.7219
1 1.32266 1.36903 1.36292
1 4.1074 4.07294 1.36848
1 4.08786 1.34412 4.06964
1 1.34541 4.06613 4.06713
8
Atoms. Timestep: 2200
1 0.014864 -0.00856944 0.0237252
1 2.72217 2.74324 -0.0142641
1 2.7025 0.0297806 2.68351
1 -0.0145214 2.6948 2.74788
1 1.36539 1.38727 1.33319
1 4.07227 4.05189 1.37284
1 4.05505 1.31665 4.10052
1 1.37381 4.08025 4.05154
8
Atoms. Timestep: 2300
1 -0.00277705 0.00508905 -0.00441824
1 2.71217 2.71421 0.0162082
1 2.70919 0.00668865 2.71487
1 0.00468319 2.72061 2.72094
1 1.37628 1.3423 1.35514
1 4.05988 4.06756 1.35636
1 4.07748 1.36045 4.0725
1 1.35386 4.07783 4.06919
8
Atoms. Timestep: 2400
1 -0.0208927 0.00902216 -0.0262351
1 2.71472 2.69452 0.0220236
1 2.73116 -0.0282389 2.75267
1 0.00832101 2.7429 2.69468
1 1.34606 1.32641 1.38061
1 4.07942 4.08426 1.34172
1 4.10412 1.40298 4.04674
1 1.3269 4.06119 4.09151
8
Atoms. Timestep: 2500
1 0.013734 0.00591443 0.0152147
1 2.70605 2.69755 0.00383937
1 2.70937 -0.000769796 2.71193
1 0.00794979 2.6996 2.70311
1 1.37551 1.36464 1.35738
1 4.0464 4.08938 1.35087
1 4.03636 1.35624 4.07757
1 1.3929 4.07925 4.08587
8
Atoms. Timestep: 2600
1 0.00790068 -0.0303112 0.0191379
1 2.73147 2.74492 -0.0380532
1 2.71932 0.0043223 2.69802
1 -0.0218251 2.69727 2.74982
1 1.31133 1.40365 1.3505
1 4.11388 4.06341 1.3875
1 4.0838 1.32379 4.0903
1 1.34121 4.08346 4.05026
8
Atoms. Timestep: 2700
1 0.00264307 0.00503019 0.00702113
1 2.70936 2.71861 0.00387974
1 2.7089 0.0145409 2.70676
1 0.0056424 2.70721 2.71405
1 1.37938 1.35388 1.3503
1 4.05293 4.06545 1.36332
1 4.05221 1.35049 4.08851
1 1.37473 4.07352 4.07635
8
Atoms. Timestep: 2800
1 -0.0187466 0.0224866 -0.0273224
1 2.70785 2.70127 0.030104
1 2.71911 -0.0112805 2.74615
1 0.0135591 2.74575 2.69261
1 1.36864 1.3084 1.37828
1 4.06389 4.07651 1.34451
1 4.09317 1.38823 4.05479
1 1.3371 4.05675 4.09264
8
Atoms. Timestep: 2900
1 -0.00780162 0.00489824 -0.00695254
1 2.71913 2.71275 0.0109923
1 2.71693 -0.00826376 2.72738
1 -0.00770141 2.73103 2.72002
1 1.35146 1.34972 1.36953
1 4.07752 4.07029 1.35154
1 4.08836 1.36378 4.06252
1 1.34485 4.06345 4.07782
8
Atoms. Timestep: 3000
1 0.0260918 -0.0114488 0.0395023
1 2.71115 2.72112 -0.0131173
1 2.70042 0.0188229 2.68532
1 -0.0082131 2.68179 2.74074
1 1.36323 1.39676 1.33719
1 4.05993 4.06955 1.36613
1 4.03492 1.31839 4.09765
1 1.39366 4.09161 4.06124
8
Atoms. Timestep: 3100
1 -0.0074428 -0.0269483 0.00931261
1 2.72521 2.731 -0.0227826
1 2.72805 -0.0102461 2.72448
1 -0.013406 2.70507 2.73393
1 1.31666 1.37936 1.35647
1 4.10631 4.07234 1.38027
1 4.08967 1.35666 4.07446
1 1.33524 4.0804 4.05865
8
Atoms. Timestep: 3200
1 -0.00717471 0.0211987 -0.0110013
1 2.69853 2.6871 0.0297182
1 2.71387 -0.00840854 2.73855
1 0.0259174 2.71928 2.67705
1 1.39033 1.31974 1.36571
1 4.03648 4.08937 1.3437
1 4.05177 1.39587 4.06786
1 1.36951 4.06468 4.1036
8
Atoms. Timestep: 3300
1 -0.0121637 0.00960214 -0.0248672
1 2.71867 2.7109 0.0142121
1 2.71737 -0.0111182 2.72852
1 -0.000597607 2.74003 2.71109
1 1.3526 1.33652 1.38297
1 4.07676 4.07406 1.3549
1 4.09494 1.36769 4.06454
1 1.3301 4.06202 4.08402
8
Atoms. Timestep: 3400
1 0.0100493 -0.00662098 0.0162019
1 2.72431 2.73459 -0.0127477
1 2.70409 0.0210697 2.68474
1 -0.0197139 2.71018 2.7487
1 1.3517 1.3898 1.35338
1 4.07471 4.05104 1.37005
1 4.06794 1.31484 4.09406
1 1.36325 4.07707 4.0598
8
Atoms. Timestep: 3500
1 0.0125415 -0.00396641 0.0308658
1 2.70481 2.72844 -0.00947488
1 2.70476 0.0197817 2.7014
1 -0.00175591 2.69616 2.72753
1 1.35838 1.37306 1.33919
1 4.06529 4.06541 1.36765
1 4.04886 1.33163 4.09054
1 1.38262 4.08355 4.06534
8
Atoms. Timestep: 3600
1 -0.0263836 -0.00163941 -0.0117651
1 2.71414 2.7125 0.00442924
1 2.73719 -0.0262563 2.76494
1 6.76642e-05 2.72792 2.69901
1 1.33044 1.33075 1.37052
1 4.09437 4.08781 1.35916
1 4.09481 1.40257 4.04658
1 1.33071 4.06264 4.07872
8
Atoms. Timestep: 3700
1 0.00439585 0.0187321 -0.00239687
1 2.7 2.68302 0.0326609
1 2.7037 -0.0102915 2.72801
1 0.0194262 2.71517 2.68953
1 1.39025 1.33692 1.36063
1 4.03694 4.09549 1.33409
1 4.04811 1.38929 4.06661
1 1.37161 4.07153 4.09896
8
Atoms. Timestep: 3800
1 0.00199111 -0.0187734 -0.00416801
1 2.73634 2.72819 -0.014173
1 2.71109 0.00214683 2.69206
1 -0.0228239 2.71817 2.75479
1 1.33539 1.39362 1.3678
1 4.08979 4.06473 1.37401
1 4.09164 1.32865 4.08127
1 1.33058 4.08583 4.05361
8
Atoms. Timestep: 3900
1 0.00805714 -0.00577843 0.0152657
1 2.71534 2.73355 -0.0133373
1 2.70619 0.0271768 2.68258
1 -0.00580661 2.70337 2.73174
1 1.35917 1.3872 1.34623
1 4.06286 4.05336 1.37095
1 4.05695 1.32345 4.10431
1 1.37095 4.08331 4.0646
8
Atoms. Timestep: 4000
1 -0.0113543 0.0187788 -0.00333435
1 2.69617 2.7204 0.003876
1 2.72049 0.0029767 2.74043
1 0.01543 2.72457 2.6827
1 1.35657 1.3225 1.36322
1 4.06688 4.0796 1.35944
1 4.06613 1.37687 4.06608
1 1.3643 4.06418 4.08609
8
Atoms. Timestep: 4100
1 -0.0217923 0.0151469 -0.016219
1 2.71662 2.71273 0.00589682
1 2.73162 -0.0211657 2.75765
1 -0.00492396 2.73949 2.69583
1 1.33918 1.32683 1.37355
1 4.08792 4.08814 1.3473
1 4.08845 1.39749 4.04448
1 1.33804 4.05415 4.08714
8
Atoms. Timestep: 4200
1 0.0258767 0.00283039 0.0218337
1 2.71057 2.70411 0.0121267
1 2.68696 0.0114051 2.68626
1 -0.0021174 2.7025 2.73366
1 1.38206 1.38433 1.34263
1 4.04841 4.08061 1.34454
1 4.04515 1.3411 4.08169
1 1.37866 4.08895 4.06957
8
Atoms. Timestep: 4300
1 -0.00382978 -0.0309353 0.00250695
1 2.7398 2.73474 -0.0190611
1 2.71656 0.00712505 2.69364
1 -0.0255219 2.70902 2.76523
1 1.33308 1.40467 1.35096
1 4.0929 4.06356 1.37754
1 4.09516 1.33268 4.08069
1 1.32833 4.09856 4.0375
8
Atoms. Timestep: 4400
1 -0.00662154 0.0106757 -0.00199886
1 2.69628 2.71196 0.0124016
1 2.71694 0.00840691 2.72044
1 0.0220488 2.71189 2.68526
1 1.37448 1.34578 1.35154
1 4.04882 4.07677 1.35126
1 4.05594 1.37827 4.08384
1 1.37055 4.0777 4.08458
8
Atoms. Timestep: 4500
1 -0.014875 0.0267365 -0.0213934
1 2.70257 2.71414 0.00114351
1 2.72938 -0.0109477 2.74995
1 0.0140502 2.73798 2.67167
1 1.34518 1.31721 1.38302
1 4.07601 4.09186 1.35369
1 4.07406 1.38874 4.05323
1 1.35408 4.05747 4.09389
8
Atoms. Timestep: 4600
1 0.00234698 0.00826632 0.00050505
1 2.73054 2.72858 -0.0183776
1 2.71434 0.0030414 2.70686
1 -0.0211926 2.72978 2.72477
1 1.34085 1.37233 1.36159
1 4.08605 4.07247 1.35754
1 4.07394 1.34628 4.07175
1 1.35584 4.06365 4.07837
8
Atoms. Timestep: 4700
1 0.0292425 -0.00521708 0.0262601
1 2.7145 2.72432 -0.00235093
1 2.68509 0.0296082 2.66949
1 -0.00422831 2.69889 2.74704
1 1.3781 1.39382 1.33388
1 4.05601 4.06583 1.36342
1 4.05225 1.32099 4.09209
1 1.37396 4.09612 4.05285
8
Atoms. Timestep: 4800
1 -0.0265273 -0.015611 -0.0151583
1 2.72627 2.72568 0.0033547
1 2.73454 -0.00552084 2.73395
1 -0.00902773 2.72195 2.7321
1 1.34646 1.35799 1.35291
1 4.08833 4.07208 1.36107
1 4.10477 1.38078 4.06342
1 1.32337 4.08712 4.05107
8
Atoms. Timestep: 4900
1 -0.00391131 0.0235598 -0.00446379
1 2.68807 2.69208 0.0324709
1 2.71721 -0.00786052 2.74233
1 0.0321417 2.72013 2.66968
1 1.38133 1.32789 1.35928
1 4.04545 4.09477 1.33084
1 4.05514 1.40261 4.05978
1 1.37618 4.07138 4.09358
8
Atoms. Timestep: 5000
1 0.00168561 0.00657065 -0.00448617
1 2.72498 2.72112 -0.019772
1 2.72254 -0.00786676 2.72324
1 -0.00993492 2.72728 2.71288
1 1.32825 1.36775 1.37529
1 4.09344 4.08747 1.35964
1 4.07681 1.35102 4.06164
1 1.35732 4.06887 4.07771
8
Atoms. Timestep: 5100
1 0.0167825 -0.00589936 0.0155589
1 2.7354 2.73916 -0.0315299
1 2.70765 0.0208883 2.67756
1 -0.0179155 2.70984 2.73814
1 1.34755 1.40011 1.34804
1 4.07961 4.06063 1.37603
1 4.06158 1.31918 4.0971
1 1.36802 4.07678 4.06775
8
Atoms. Timestep: 5200
1 0.0093287 0.00482596 0.000521349
1 2.7052 2.72395 0.00622024
1 2.7041 0.0206818 2.6982
1 0.016873 2.71141 2.71362
1 1.38237 1.34884 1.34921
1 4.05842 4.06661 1.36895
1 4.06961 1.35667 4.08773
1 1.35679 4.08529 4.0686
8
Atoms. Timestep: 5300
1 -0.0337005 0.00643911 -0.0320198
1 2.72033 2.71149 0.0204376
1 2.74692 -0.0189224 2.75744
1 0.000779322 2.74095 2.7052
1 1.35697 1.3215 1.37329
1 4.0825 4.07839 1.34683
1 4.10635 1.40712 4.05173
1 1.32678 4.06786 4.07566
8
Atoms. Timestep: 5400
1 0.0213761 0.016037 0.0182085
1 2.69845 2.69435 0.0260742
1 2.69962 -0.00122482 2.71933
1 0.0160552 2.71434 2.70392
1 1.37556 1.361 1.35561
1 4.05528 4.0897 1.33288
1 4.05294 1.36395 4.06337
1 1.39119 4.07367 4.08399
8
Atoms. Timestep: 5500
1 0.0086353 -0.0196191 0.0218046
1 2.74355 2.73529 -0.0329132
1 2.71899 0.0031957 2.70904
1 -0.02626 2.70705 2.75513
1 1.32161 1.40595 1.35183
1 4.1068 4.0747 1.37467
1 4.08089 1.31975 4.0743
1 1.3604 4.08176 4.05494
8
Atoms. Timestep: 5600
1 0.00724186 -0.00439143 0.0143356
1 2.71776 2.72932 -0.00858069
1 2.71762 0.0128486 2.70342
1 0.00956491 2.70198 2.71466
1 1.3688 1.36904 1.34796
1 4.06832 4.0647 1.37495
1 4.06032 1.35238 4.09511
1 1.36902 4.07777 4.07344
8
Atoms. Timestep: 5700
1 -0.00572975 0.0190191 -0.0257602
1 2.70139 2.70611 0.0211155
1 2.72615 -0.00401497 2.73257
1 0.0313718 2.72885 2.68517
1 1.38008 1.30992 1.37875
1 4.06294 4.07703 1.35871
1 4.08384 1.39378 4.07641
1 1.3428 4.06992 4.09401
8
Atoms. Timestep: 5800
1 -0.0129371 0.00606101 -0.0252243
1 2.73537 2.70986 0.0104392
1 2.73644 -0.0142001 2.73079
1 -0.0103305 2.74231 2.71911
1 1.35597 1.34504 1.386
1 4.08023 4.0733 1.35554
1 4.09608 1.37309 4.06476
1 1.34504 4.06181 4.08555
8
Atoms. Timestep: 5900
1 0.0423922 -0.00164402 0.040727
1 2.71241 2.71315 0.00510902
1 2.68597 0.0197841 2.68753
1 0.00458193 2.69658 2.73779
1 1.36646 1.39683 1.34232
1 4.06647 4.07193 1.3584
1 4.05282 1.31676 4.08933
1 1.39794 4.08052 4.07177
8
Atoms. Timestep: 6000
1 -0.010057 -0.0241594 0.0228165
1 2.73895 2.74026 -0.0215172
1 2.73476 -0.000342499 2.73533
1 -0.0178897 2.70356 2.75083
1 1.33394 1.38053 1.3462
1 4.10826 4.06894 1.38011
1 4.08992 1.34246 4.072
1 1.35433 4.08089 4.05192
8
Atoms. Timestep: 6100
1 -0.00204544 0.0151201 0.00855858
1 2.69507 2.7031 0.0294973
1 2.72603 -0.00734023 2.74377
1 0.0338247 2.71242 2.688
1 1.38809 1.32338 1.36003
1 4.06087 4.07789 1.34948
1 4.06436 1.39769 4.07313
1 1.36874 4.06766 4.09059
8
Atoms. Timestep: 6200
1 0.000765977 0.01306 -0.0235509
1 2.71863 2.69934 0.0203887
1 2.72627 -0.0149011 2.73191
1 0.0149182 2.73495 2.70746
1 1.36598 1.32997 1.39077
1 4.0752 4.08184 1.35355
1 4.09031 1.37772 4.0719
1 1.34405 4.06661 4.09437
8
Atoms. Timestep: 6300
1 0.0120357 -0.0126482 -0.00176869
1 2.75218 2.72231 -0.010076
1 2.71729 0.0079002 2.69037
1 -0.0197937 2.72069 2.74644
1 1.35243 1.39298 1.37353
1 4.07773 4.06228 1.38055
1 4.08178 1.32348 4.09376
1 1.36325 4.07215 4.07579
8
Atoms. Timestep: 6400
1 0.0343799 -0.00696397 0.0348729
1 2.70921 2.72607 -0.00459689
1 2.69638 0.0246635 2.69139
1 0.0177625 2.69056 2.72585
1 1.36458 1.38233 1.3424
1 4.06967 4.0637 1.37866
1 4.05975 1.32508 4.10474
1 1.38551 4.08386 4.07665
8
Atoms. Timestep: 6500
1 -0.0307493 -0.00217285 -0.000755849
1 2.72357 2.72614 -0.00210241
1 2.75776 -0.0189153 2.76985
1 -0.00255941 2.72232 2.71554
1 1.34777 1.3284 1.37044
1 4.10127 4.07621 1.36767
1 4.09439 1.38991 4.05625
1 1.34637 4.06877 4.07262
8
Atoms. Timestep: 6600
1 0.011289 0.025653 0.0130767
1 2.69259 2.68983 0.0440795
1 2.71176 -0.0115493 2.74129
1 0.0294906 2.7231 2.69528
1 1.38956 1.32689 1.36382
1 4.06208 4.08591 1.32905
1 4.06433 1.39311 4.06273
1 1.37569 4.06088 4.09747
8
Atoms. Timestep: 6700
1 0.0102974 -0.0108824 -0.000501126
1 2.74396 2.71741 0.00289636
1 2.71122 0.0017784 2.70908
1 -0.0153342 2.72301 2.75669
1 1.35232 1.38121 1.3687
1 4.0887 4.07576 1.36746
1 4.09308 1.33115 4.07599
1 1.35102 4.07755 4.06334
8
Atoms. Timestep: 6800
1 0.0123765 -0.0196646 0.0126901
1 2.74161 2.73217 -0.0111122
1 2.7143 0.021318 2.6867
1 -0.00653408 2.70328 2.74184
1 1.36028 1.3984 1.351
1 4.06963 4.05671 1.38534
1 4.07331 1.32435 4.10676
1 1.36839 4.08486 4.06613
8
Atoms. Timestep: 6900
1 0.0105035 0.0110703 0.00467059
1 2.69445 2.71735 0.00153884
1 2.72153 0.00421718 2.72428
1 0.0364473 2.70843 2.68595
1 1.3645 1.33659 1.36648
1 4.0688 4.0746 1.36952
1 4.06898 1.37399 4.08811
1 1.36646 4.08047 4.0933
8
Atoms. Timestep: 7000
1 -0.0260084 0.0159012 -0.0205376
1 2.72624 2.71312 -0.00107761
1 2.7594 -0.0279261 2.7629
1 -0.0051978 2.73975 2.69809
1 1.34742 1.32261 1.39068
1 4.09345 4.08784 1.35489
1 4.08579 1.39977 4.05057
1 1.34805 4.0599 4.09311
8
Atoms. Timestep: 7100
1 0.0350367 0.012084 0.0249396
1 2.70735 2.70555 0.0243001
1 2.6848 0.0114386 2.698
1 0.0101756 2.7141 2.72388
1 1.37995 1.3731 1.34726
1 4.06661 4.08294 1.3428
1 4.05959 1.34857 4.07826
1 1.38213 4.06907 4.0818
8
Atoms. Timestep: 7200
1 -0.00106483 -0.0250753 0.0103594
1 2.74986 2.73984 -0.0115761
1 2.7117 0.0202831 2.70411
1 -0.0258822 2.71304 2.77425
1 1.35151 1.39647 1.34231
1 4.09151 4.06674 1.38005
1 4.09737 1.32081 4.07833
1 1.34718 4.0909 4.03625
8
Atoms. Timestep: 7300
1 -0.00535641 0.00308092 0.0086838
1 2.70717 2.72165 0.0127381
1 2.72353 0.0109569 2.71863
1 0.0170734 2.71464 2.70684
1 1.37598 1.35776 1.34785
1 4.06027 4.06328 1.35417
1 4.0728 1.37152 4.0858
1 1.36724 4.08511 4.07282
8
Atoms. Timestep: 7400
1 0.000668703 0.0294347 -0.0169192
1 2.69381 2.70534 0.00717215
1 2.73195 -0.0149832 2.74491
1 0.0308075 2.73089 2.67315
1 1.35253 1.32253 1.38712
1 4.07458 4.09207 1.34737
1 4.07204 1.39494 4.0594
1 1.35876 4.07342 4.09789
8
Atoms. Timestep: 7500
1 -0.0041382 0.00556854 -0.0150898
1 2.74509 2.72334 -0.0193318
1 2.7355 -0.0100627 2.71886
1 -0.0219655 2.73111 2.71342
1 1.33974 1.37026 1.37478
1 4.08822 4.08996 1.36379
1 4.07087 1.36406 4.06853
1 1.3578 4.06416 4.08793
8
Atoms. Timestep: 7600
1 0.0417236 -0.00623272 0.0267144
1 2.71381 2.72713 -0.00389872
1 2.67617 0.0350174 2.66681
1 0.00828979 2.69757 2.73255
1 1.3727 1.39873 1.33151
1 4.06354 4.07549 1.37224
1 4.05775 1.32789 4.09788
1 1.37284 4.08671 4.06332
8
Atoms. Timestep: 7700
1 -0.0276631 -0.0111454 -0.00837405
1 2.73183 2.73616 -0.00914615
1 2.73419 0.010418 2.72484
1 -0.015888 2.72686 2.74496
1 1.35895 1.36173 1.35009
1 4.0839 4.06607 1.36664
1 4.10302 1.36266 4.06832
1 1.33461 4.09341 4.0449
8
Atoms. Timestep: 7800
1 -0.00894146 0.0325214 -0.000646973
1 2.68438 2.70222 0.0356547
1 2.72083 -0.00380211 2.7388
1 0.025666 2.73663 2.68258
1 1.38054 1.3299 1.36113
1 4.05636 4.07733 1.32008
1 4.06937 1.40051 4.05616
1 1.3712 4.07371 4.08511
8
Atoms. Timestep: 7900
1 0.00555721 0.0201806 -0.00974482
1 2.71365 2.71879 -0.00149698
1 2.71577 -0.00619586 2.73474
1 -0.000230813 2.73048 2.70538
1 1.33621 1.35739 1.37135
1 4.08926 4.09643 1.34737
1 4.0723 1.3628 4.05251
1 1.36322 4.06982 4.07699
8
Atoms. Timestep: 8000
1 0.00690502 -0.0139255 0.00859978
1 2.75071 2.74388 -0.0324723
1 2.716 0.0167724 2.68972
1 -0.0259444 2.70732 2.73091
1 1.34067 1.40648 1.34149
1 4.08021 4.07961 1.38157
1 4.05968 1.33408 4.08977
1 1.36398 4.07666 4.06579
8
Atoms. Timestep: 8100
1 0.0241998 -0.00223551 0.0108341
1 2.69891 2.7224 -0.00910186
1 2.69431 0.0260107 2.6807
1 0.0251428 2.70278 2.71115
1 1.3732 1.37258 1.34553
1 4.05543 4.07312 1.37437
1 4.06483 1.35817 4.09427
1 1.35273 4.09663 4.06919
8
Atoms. Timestep: 8200
1 -0.0400651 0.0119531 -0.0356102
1 2.72033 2.71102 0.00348002
1 2.75426 -0.0163751 2.74162
1 -0.00827719 2.74882 2.71071
1 1.35871 1.32908 1.3832
1 4.07422 4.07664 1.34442
1 4.09864 1.40213 4.05628
1 1.32765 4.0839 4.07557
8
Atoms. Timestep: 8300
1 0.0107481 0.0301677 0.0019795
1 2.69077 2.70343 0.0349131
1 2.69539 0.0020633 2.72033
1 0.0138927 2.73175 2.69377
1 1.37172 1.3508 1.36119
1 4.05975 4.0851 1.32666
1 4.05975 1.37648 4.05951
1 1.38016 4.06509 4.08409
8
Atoms. Timestep: 8400
1 0.00385476 -0.0060638 0.0138469
1 2.73357 2.74681 -0.0194164
1 2.70074 0.0182295 2.7193
1 -0.0255361 2.71022 2.74354
1 1.32856 1.39243 1.33805
1 4.0994 4.08335 1.37224
1 4.0745 1.32235 4.06875
1 1.36434 4.07375 4.05043
8
Atoms. Timestep: 8500
1 -0.00436292 -0.00962498 0.0252257
1 2.7246 2.74194 -0.0193345
1 2.7179 0.0182543 2.70445
1 -0.0105664 2.70542 2.72472
1 1.35669 1.3852 1.33543
1 4.06869 4.06583 1.37394
1 4.06044 1.34753 4.0864
1 1.36366 4.08178 4.06159
8
Atoms. Timestep: 8600
1 0.00483814 0.0198424 -0.00912271
1 2.68289 2.6962 0.0103353
1 2.71631 -0.00412476 2.71734
1 0.0342262 2.72661 2.69204
1 1.3701 1.33146 1.37828
1 4.05435 4.07846 1.34821
1 4.0729 1.39491 4.0718
1 1.33939 4.08833 4.08996
8
Atoms. Timestep: 8700
1 -0.0277411 0.00742071 -0.0412595
1 2.73498 2.7031 0.00981193
1 2.74566 -0.0236194 2.73071
1 -0.0175271 2.74508 2.71235
1 1.35013 1.34273 1.39312
1 4.07019 4.08658 1.34975
1 4.08409 1.39123 4.06425
1 1.33346 4.07312 4.08787
8
Atoms. Timestep: 8800
1 0.0325473 0.000149992 0.0180078
1 2.70801 2.72149 0.0136137
1 2.67163 0.0233694 2.68952
1 0.00584849 2.69836 2.71809
1 1.35998 1.39023 1.34324
1 4.06142 4.08023 1.36728
1 4.0509 1.33536 4.09244
1 1.38163 4.07066 4.07215
8
Atoms. Timestep: 8900
1 -0.0142909 -0.0161454 0.0233782
1 2.7318 2.75134 -0.028862
1 2.71458 0.0177531 2.72652
1 -0.026705 2.70557 2.74763
1 1.33282 1.382 1.33841
1 4.0964 4.06754 1.38457
1 4.08168 1.32549 4.07841
1 1.3553 4.08078 4.05193
8
Atoms. Timestep: 9000
1 -0.0162103 0.0191679 0.0232098
1 2.68911 2.71281 0.0120712
1 2.72643 -0.00400954 2.737
1 0.0080603 2.72816 2.7035
1 1.37283 1.33672 1.36307
1 4.06163 4.06235 1.34306
1 4.06431 1.38135 4.06459
1 1.36496 4.07091 4.0844
8
Atoms. Timestep: 9100
1 0.0011067 0.0240236 -0.0150548
1 2.69108 2.69101 0.0295101
1 2.71472 -0.014859 2.73585
1 0.0175978 2.73623 2.70672
1 1.36137 1.32448 1.38733
1 4.06724 4.08399 1.33887
1 4.07683 1.38679 4.06235
1 1.34057 4.0702 4.09265
8
Atoms. Timestep: 9200
1 -0.00915911 -0.0212016 -0.0171049
1 2.75624 2.72309 0.00509332
1 2.71967 -0.00094721 2.70756
1 -0.0297007 2.7145 2.74077
1 1.34642 1.3817 1.36545
1 4.06945 4.08161 1.38157
1 4.07199 1.34744 4.09031
1 1.3452 4.07135 4.07063
8
Atoms. Timestep: 9300
1 0.0347138 -0.0172336 0.0308646
1 2.70769 2.72374 -0.00291573
1 2.67661 0.0258137 2.68596
1 0.016944 2.68 2.7238
1 1.35489 1.39592 1.34052
1 4.05549 4.06945 1.38835
1 4.0528 1.32959 4.11061
1 1.37102 4.08546 4.07328
8
Atoms. Timestep: 9400
1 -0.0329455 4.85679e-05 0.00755137
1 2.71741 2.72163 -0.0204998
1 2.74707 -0.0156572 2.75058
1 -0.015503 2.72588 2.72252
1 1.33751 1.34274 1.37893
1 4.08743 4.06775 1.36749
1 4.08529 1.36568 4.06637
1 1.34481 4.08142 4.08174
8
Atoms. Timestep: 9500
1 -0.00612931 0.0334005 0.0128065
1 2.67948 2.69507 0.0342543
1 2.71678 -0.0148479 2.74244
1 0.0131395 2.73649 2.6937
1 1.37603 1.32109 1.37992
1 4.06352 4.07177 1.33078
1 4.05899 1.39007 4.06014
1 1.36999 4.05418 4.10375
8
Atoms. Timestep: 9600
1 0.00359191 -0.00117201 -0.00393783
1 2.71813 2.72111 0.0222227
1 2.69578 0.00821707 2.72489
1 -0.0111169 2.71863 2.74315
1 1.35506 1.35328 1.36008
1 4.08419 4.08095 1.36799
1 4.08008 1.34242 4.07795
1 1.34715 4.06233 4.06743
8
Atoms. Timestep: 9700
1 -0.00520141 -0.0318396 0.0139325
1 2.75133 2.73818 3.85467e-05
1 2.70871 0.0198224 2.69979
1 -0.025766 2.69897 2.75444
1 1.35428 1.39487 1.34079
1 4.06416 4.0622 1.39201
1 4.07262 1.32571 4.10319
1 1.35413 4.07794 4.05615
8
Atoms. Timestep: 9800
1 0.0194531 0.00190903 0.023739
1 2.68912 2.70091 0.00196264
1 2.70229 -0.00048912 2.71414
1 0.0329939 2.7023 2.70778
1 1.35584 1.36198 1.36788
1 4.05186 4.0671 1.3637
1 4.06343 1.36069 4.08896
1 1.36127 4.09218 4.0914
8
Atoms. Timestep: 9900
1 -0.0319125 0.0131619 -0.0142795
1 2.71989 2.69924 -0.00436859
1 2.76382 -0.040911 2.76134
1 -0.011487 2.73749 2.7036
1 1.33476 1.32729 1.40411
1 4.08505 4.08422 1.35114
1 4.07672 1.39383 4.05472
1 1.3415 4.07302 4.10204
8
Atoms. Timestep: 10000
1 0.0199547 0.0107803 0.0122106
1 2.69697 2.71148 0.0282577
1 2.69089 0.00468346 2.71323
1 0.00868068 2.70985 2.70533
1 1.37273 1.35315 1.35795
1 4.06826 4.08283 1.35796
1 4.049 1.36581 4.08535
1 1.37349 4.05291 4.0928
8
Atoms. Timestep: 10100
1 -0.00174641 -0.0235956 0.00797612
1 2.73684 2.74552 -0.00585534
1 2.69406 0.0308245 2.70813
1 -0.024322 2.70536 2.76338
1 1.35399 1.37781 1.33928
1 4.08787 4.06976 1.39588
1 4.0888 1.31643 4.09243
1 1.34625 4.07375 4.04669
8
Atoms. Timestep: 10200
1 -0.0144519 -0.00363945 0.0210241
1 2.71788 2.72237 0.00695424
1 2.71761 0.0115782 2.71177
1 -0.00743561 2.72428 2.73319
1 1.36831 1.36811 1.35371
1 4.05772 4.04882 1.35865
1 4.08198 1.3477 4.08542
1 1.3618 4.08123 4.07108
8
Atoms. Timestep: 10300
1 0.00752586 0.0316763 0.00155177
1 2.68001 2.689 0.0173644
1 2.71908 -0.0209225 2.74309
1 0.0328081 2.73139 2.6935
1 1.35362 1.33112 1.38984
1 4.06212 4.07782 1.33331
1 4.06856 1.38476 4.05679
1 1.36152 4.08145 4.09871
8
Atoms. Timestep: 10400
1 -0.016919 -0.000615111 -0.0164855
1 2.74125 2.71993 -0.000608037
1 2.74777 -0.0245754 2.74406
1 -0.0202823 2.71886 2.7102
1 1.33293 1.35441 1.37496
1 4.09119 4.09694 1.36302
1 4.06537 1.38134 4.06556
1 1.34595 4.0657 4.08535
8
Atoms. Timestep: 10500
1 0.0390473 -0.0174584 0.0235526
1 2.71304 2.73029 0.00297478
1 2.67726 0.0299626 2.68311
1 0.0121605 2.68266 2.72034
1 1.36989 1.39132 1.32916
1 4.06188 4.08454 1.3855
1 4.04565 1.34342 4.10501
1 1.36991 4.07338 4.06816
8
Atoms. Timestep: 10600
1 -0.0169604 -0.0149354 -8.50514e-05
1 2.73263 2.72902 -0.0237113
1 2.72111 0.0172651 2.70822
1 -0.0187486 2.72592 2.75057
1 1.35418 1.37127 1.35871
1 4.07874 4.06412 1.37916
1 4.10147 1.34015 4.07912
1 1.33801 4.09186 4.05726
8
Atoms. Timestep: 10700
1 -0.0159766 0.0330542 0.00172879
1 2.69036 2.69952 0.0227846
1 2.72423 -0.00742274 2.72209
1 0.0104247 2.75267 2.69736
1 1.37637 1.33753 1.37876
1 4.05712 4.05816 1.3228
1 4.07993 1.38205 4.06214
1 1.36946 4.0746 4.09433
8
Atoms. Timestep: 10800
1 0.00530443 0.0316619 -0.0147097
1 2.69609 2.71794 0.0166982
1 2.71093 -0.00651914 2.74433
1 0.011657 2.72705 2.69964
1 1.35047 1.33749 1.37151
1 4.08448 4.08948 1.34439
1 4.06766 1.37211 4.05506
1 1.3666 4.06609 4.07766
8
Atoms. Timestep: 10900
1 -0.00452626 -0.0199572 0.00601846
1 2.75476 2.75413 -0.0137447
1 2.72341 0.0125822 2.71698
1 -0.0275568 2.6971 2.72587
1 1.33788 1.38968 1.32952
1 4.09225 4.0896 1.38238
1 4.06357 1.34871 4.08374
1 1.35432 4.06899 4.05582
8
Atoms. Timestep: 11000
1 0.0355534 -0.0125481 0.0286437
1 2.70564 2.71634 -0.0117327
1 2.68896 0.0268967 2.68257
1 0.0243959 2.69733 2.72181
1 1.37108 1.39143 1.33684
1 4.04827 4.0775 1.37018
1 4.05645 1.35104 4.08796
1 1.36383 4.09583 4.06489
8
Atoms. Timestep: 11100
1 -0.0287672 0.00927878 -0.0235751
1 2.72369 2.69644 -0.0123086
1 2.75271 -0.0165664 2.7227
1 -0.00823722 2.75344 2.72431
1 1.34953 1.34767 1.39073
1 4.073 4.07399 1.34043
1 4.10258 1.38539 4.0542
1 1.32904 4.09674 4.07967
8
Atoms. Timestep: 11200
1 0.000379667 0.0335562 -0.0162893
1 2.69212 2.70721 0.0314615
1 2.70966 -0.00534066 2.71414
1 0.0160005 2.73726 2.68258
1 1.37666 1.34067 1.37067
1 4.06223 4.08033 1.33067
1 4.06255 1.3887 4.06752
1 1.37333 4.0662 4.09072
8
Atoms. Timestep: 11300
1 0.00452103 0.00478546 -0.00949793
1 2.72258 2.75596 -0.0103787
1 2.69589 0.0242847 2.72374
1 -0.0121428 2.70203 2.71751
1 1.34544 1.36998 1.33754
1 4.09842 4.08829 1.38183
1 4.07042 1.33846 4.07723
1 1.36681 4.06499 4.05072
8
Atoms. Timestep: 11400
1 -0.00524008 -0.0132288 0.0264298
1 2.73753 2.75125 -0.0262515
1 2.71679 0.0241063 2.70442
1 -0.0230372 2.7105 2.72586
1 1.34711 1.39152 1.32709
1 4.08103 4.06885 1.37156
1 4.0732 1.3366 4.08069
1 1.36303 4.07851 4.05652
8
Atoms. Timestep: 11500
1 0.0168949 0.0192029 0.0136894
1 2.68463 2.68737 -0.000328338
1 2.71 0.00169906 2.7066
1 0.0315601 2.73468 2.70962
1 1.37228 1.35591 1.36984
1 4.04546 4.07274 1.33172
1 4.0673 1.37805 4.05417
1 1.36002 4.09623 4.08089
8
Atoms. Timestep: 11600
1 -0.0278026 0.0109504 -0.0391939
1 2.73083 2.69868 0.0116522
1 2.75537 -0.0264326 2.73185
1 -0.00865882 2.74533 2.71582
1 1.34516 1.33889 1.3845
1 4.07837 4.0899 1.3336
1 4.08944 1.40045 4.05216
1 1.32337 4.08441 4.07757
8
Atoms. Timestep: 11700
1 0.0232501 0.000505287 -0.00626469
1 2.71066 2.7316 0.0219597
1 2.68466 0.0166896 2.69537
1 0.0131472 2.69394 2.69776
1 1.37218 1.37468 1.33648
1 4.06043 4.0904 1.36715
1 4.04609 1.3632 4.09284
1 1.37303 4.06737 4.06458
8
Atoms. Timestep: 11800
1 -0.00259977 -0.0118002 0.00557906
1 2.73329 2.75154 -0.0393513
1 2.70306 0.0267685 2.71215
1 -0.0214125 2.70055 2.72899
1 1.33602 1.38671 1.33852
1 4.09179 4.07646 1.39116
1 4.08116 1.32332 4.0832
1 1.35947 4.08017 4.0524
8
Atoms. Timestep: 11900
1 -0.0146123 0.0155938 0.0220939
1 2.70171 2.71477 -0.0178184
1 2.72543 1.11813e-05 2.7127
1 -0.00832908 2.74294 2.70387
1 1.3566 1.35907 1.36541
1 4.06963 4.05684 1.34025
1 4.07711 1.35913 4.0626
1 1.3694 4.0783 4.08845
8
Atoms. Timestep: 12000
1 0.00218119 0.0333383 -0.0110254
1 2.67935 2.68903 0.0200597
1 2.7148 -0.00927408 2.72676
1 0.0223399 2.74106 2.70246
1 1.37165 1.32507 1.38135
1 4.06059 4.07733 1.32758
1 4.06596 1.38776 4.04898
1 1.35597 4.07609 4.08562
8
Atoms. Timestep: 12100
1 -0.019204 -0.0152906 -0.0275849
1 2.74782 2.7324 0.0178542
1 2.72847 -0.00246716 2.72286
1 -0.0224436 2.71088 2.73202
1 1.34583 1.35837 1.34631
1 4.08417 4.09073 1.36521
1 4.07873 1.36979 4.07688