LAMMPS (27 May 2021)
#echo screen

newton on
boundary	 	 p p p
units	 	 	 metal
atom_style	 	 atomic
atom_modify sort 1 1000.0

read_data DATA
Reading data file ...
  orthogonal box = (0.0000000 0.0000000 0.0000000) to (5.4300000 5.4300000 5.4300000)
  1 by 1 by 1 MPI processor grid
  reading atoms ...
  8 atoms
  read_data CPU = 0.002 seconds

# Variables
variable xhi equal 5.431
variable yhi equal 5.431
variable zhi equal 543.1
variable tol equal 0.0
variable r1_zlo equal 0.0+${tol}
variable r1_zlo equal 0.0+0
variable r1_zhi equal ${zhi}/2.0-${tol}
variable r1_zhi equal 543.1/2.0-${tol}
variable r1_zhi equal 543.1/2.0-0
variable r2_zlo equal ${zhi}/2.0+${tol}
variable r2_zlo equal 543.1/2.0+${tol}
variable r2_zlo equal 543.1/2.0+0
variable r2_zhi equal ${zhi} #-${tol}
variable r2_zhi equal 543.1 
print """
R1 zlo = ${r1_zlo}
R1 zhi = ${r1_zhi}
R2 zlo = ${r2_zlo}
R2 zhi = ${r2_zhi}
"""

R1 zlo = 0
R1 zhi = 271.55
R2 zlo = 271.55
R2 zhi = 543.1


# Define regions and groups
region r1 block EDGE EDGE EDGE EDGE 0.0+${tol} ${r1_zhi}
region r1 block EDGE EDGE EDGE EDGE 0.0+0 ${r1_zhi}
region r1 block EDGE EDGE EDGE EDGE 0.0+0 271.55
region r2 block EDGE EDGE EDGE EDGE ${r2_zlo} ${r2_zhi}
region r2 block EDGE EDGE EDGE EDGE 271.55 ${r2_zhi}
region r2 block EDGE EDGE EDGE EDGE 271.55 543.1
group gA region r1 # Group A
8 atoms in group gA
group gB region r2 # Group B
0 atoms in group gB

# Neighborlist commands
neighbor    1.0 bin
neigh_modify once yes

# Potential
#pair_style tersoff2
#pair_coeff * * Si.tersoff Si Si2
pair_style tep 4
pair_coeff * *

# Computes
#compute dsp all mode/atom
compute ke_A gA ke
compute ke_B gB ke
compute pe_atom_A gA pe/atom
compute pe_A gA reduce sum c_pe_atom_A
compute pe_atom_B gB pe/atom
compute pe_B gB reduce sum c_pe_atom_B
compute com_all all com

compute      myKE all ke/atom
compute      myPE all pe/atom
compute      myStress all stress/atom NULL virial
compute      fluxA gA heat/flux myKE myPE myStress
compute      fluxB gB heat/flux myKE myPE myStress
compute modeCompute all mode 0
compute modeFv all mode/fv

# Initialize velocity, thermo settings, timestep and ensemble
velocity	 all create 50 30101 rot yes mom yes
thermo  	 2 # Compute FV and mode quantities every 2 ps
#thermo_style custom step c_ke_A c_ke_B c_pe_A c_pe_B c_flux[1] c_flux[2] c_flux[3] #ke press vol temp
thermo_style custom step etotal c_modeCompute c_modeFv #ke press vol temp
#thermo_modify format line "%ld %.10e %.10e %.10e %.10e %e %e %e"
fix 1 all nve
#fix 1 all nvt temp 10000.0 1000.0 1.0
#fix 2 all temp/rescale 1000 1000.0 1000.0 1.0 1.0
timestep  0.0005

#fix 2 all momentum 1 linear 1 1 1 rescale

# Run MD
dump 1 all xyz 100 dump.xyz
#dump_modify 1 format line "%ld %.9f %.9f %.9f"
#dump 2 all custom 100 dump.velocities vx vy vz
#dump 3 all custom 100 dump.force fx fy fz
#dump 3 all custom 1 dump.coords type xs ys zs
#dump_modify 3 format float %20.15g scale yes
#dump_modify 2 sort id
#dump 4 all custom 100 dump.disp id type c_dsp[3]
#dump_modify 4 sort id

fix test all mode -0.1 0.1 0.1 # Initialize mode temperatures

run 40000
Neighbor list info ...
  update every 1 steps, delay 10 steps, check yes
  max neighbors/atom: 2000, page size: 100000
  master list distance cutoff = 0
  ghost atom cutoff = 0
  binsize = 5.43, bins = 1 1 1
  1 neighbor lists, perpetual/occasional/extra = 1 0 0
  (1) pair tep, perpetual
      attributes: half, newton on
      pair build: half/bin/atomonly/newton
      stencil: half/bin/3d
      bin: standard
WARNING: Communication cutoff is 0.0. No ghost atoms will be generated. Atoms may get lost. (../comm_brick.cpp:210)
Per MPI rank memory allocation (min/avg/max) = 4.805 | 4.805 | 4.805 Mbytes
Step TotEng c_modeCompute c_modeFv 
       0  0.071992253            0 4.6575538e-310 
       2  0.071561166 0.00043134467 4.6575538e-310 
       4  0.070281041 0.0017119369 4.6575538e-310 
       6  0.068191386 0.0038019286 4.6575538e-310 
       8  0.065356886 0.0066364759 4.6575538e-310 
      10  0.061865067  0.010128026 4.6575538e-310 
      12  0.057823159  0.014169391 4.6575538e-310 
      14  0.053354313  0.018637481 4.6575538e-310 
      16  0.048593286  0.023397564 4.6575538e-310 
      18  0.043681798  0.028307876 4.6575538e-310 
      20  0.038763719  0.033224428 4.6575538e-310 
      22  0.033980259   0.03800581 4.6575538e-310 
      24  0.029465354  0.042517836 4.6575538e-310 
      26   0.02534139  0.046637854 4.6575538e-310 
      28   0.02171542  0.050258582 4.6575538e-310 
      30  0.018675992  0.053291333 4.6575538e-310 
      32  0.016290679  0.055668524 4.6575538e-310 
      34  0.014604398  0.057345402 4.6575538e-310 
      36   0.01363854  0.058300934 4.6575538e-310 
      38  0.013390924  0.058537848 4.6575538e-310 
      40  0.013836577  0.058081841 4.6575538e-310 
      42  0.014929261  0.056980006 4.6575538e-310 
      44  0.016603706  0.055298547 4.6575538e-310 
      46   0.01877844  0.053119874 4.6575538e-310 
      48  0.021359105   0.05053922 4.6575538e-310 
      50   0.02424213  0.047660895 4.6575538e-310 
      52  0.027318622  0.044594326 4.6575538e-310 
      54  0.030478335  0.041450049 4.6575538e-310 
      56  0.033613555  0.038335797 4.6575538e-310 
      58  0.036622776  0.035352817 4.6575538e-310 
      60  0.039414024  0.032592577 4.6575538e-310 
      62  0.041907707  0.030133958 4.6575538e-310 
      64  0.044038901  0.028041034 4.6575538e-310 
      66  0.045758988  0.026361512 4.6575538e-310 
      68  0.047036597  0.025125878 4.6575538e-310 
      70  0.047857825  0.024347252 4.6575538e-310 
      72  0.048225751  0.024021946 4.6575538e-310 
      74  0.048159274  0.024130673 4.6575538e-310 
      76  0.047691344  0.024640339 4.6575538e-310 
      78  0.046866681  0.025506317 4.6575538e-310 
      80  0.045739095  0.026675089 4.6575538e-310 
      82  0.044368531  0.028087131 4.6575538e-310 
      84     0.042818  0.029679896 4.6575538e-310 
      86  0.041150518  0.031390757 4.6575538e-310 
      88  0.039426224  0.033159782 4.6575538e-310 
      90  0.037699791  0.034932202 4.6575538e-310 
      92  0.036018268   0.03666048 4.6575538e-310 
      94  0.034419434  0.038305882 4.6575538e-310 
      96  0.032930748  0.039839499 4.6575538e-310 
      98  0.031568931  0.041242676 4.6575538e-310 
     100  0.030340174  0.042506856 4.6575538e-310 
     102  0.029240971  0.043632865 4.6575538e-310 
     104  0.028259495  0.044629679 4.6575538e-310 
     106  0.027377433  0.045512776 4.6575538e-310 
     108  0.026572175  0.046302154 4.6575538e-310 
     110  0.025819221  0.047020149 4.6575538e-310 
     112  0.025094646  0.047689162 4.6575538e-310 
     114  0.024377507  0.048329446 4.6575538e-310 
     116  0.023652022  0.048957067 4.6575538e-310 
     118  0.022909392  0.049582153 4.6575538e-310 
     120  0.022149179  0.050207543 4.6575538e-310 
     122  0.021380125  0.050827913 4.6575538e-310 
     124  0.020620376  0.051429415 4.6575538e-310 
     126  0.019897085   0.05198989 4.6575538e-310 
     128  0.019245416  0.052479614 4.6575538e-310 
     130  0.018706981   0.05286257 4.6575538e-310 
     132  0.018327805  0.053098183 4.6575538e-310 
     134  0.018155918  0.053143419 4.6575538e-310 
     136  0.018238689   0.05295517 4.6575538e-310 
     138  0.018620059  0.052492786 4.6575538e-310 
     140  0.019337792  0.051720636 4.6575538e-310 
     142   0.02042091  0.050610577 4.6575538e-310 
     144  0.021887417  0.049144183 4.6575538e-310 
     146  0.023742459   0.04731465 4.6575538e-310 
     148  0.025976989  0.045128245 4.6575538e-310 
     150  0.028567028  0.042605232 4.6575538e-310 
     152  0.031473563  0.039780219 4.6575538e-310 
     154  0.034643097  0.036701881 4.6575538e-310 
     156  0.038008843  0.033432052 4.6575538e-310 
     158  0.041492527   0.03004422 4.6575538e-310 
     160   0.04500673  0.026621451 4.6575538e-310 
     162  0.048457686   0.02325383 4.6575538e-310 
     164  0.051748439  0.020035499 4.6575538e-310 
     166  0.054782223  0.017061408 4.6575538e-310 
     168  0.057465951  0.014423905 4.6575538e-310 
     170  0.059713668  0.012209295 4.6575538e-310 
     172  0.061449834  0.010494504 4.6575538e-310 
     174   0.06261231 0.0093439831 4.6575538e-310 
     176   0.06315492 0.0088069853 4.6575538e-310 
     178  0.063049499 0.0089153173 4.6575538e-310 
     180  0.062287315 0.0096816735 4.6575538e-310 
     182  0.060879833  0.011098621 4.6575538e-310 
     184  0.058858764  0.013138289 4.6575538e-310 
     186  0.056275391   0.01575278 4.6575538e-310 
     188  0.053199206  0.018875304 4.6575538e-310 
     190  0.049715888  0.022422002 4.6575538e-310 
     192  0.045924702  0.026294387 4.6575538e-310 
     194   0.04193541  0.030382338 4.6575538e-310 
     196  0.037864811  0.034567524 4.6575538e-310 
     198   0.03383303  0.038727151 4.6575538e-310 
     200  0.029959693  0.042737888 4.6575538e-310 
     202  0.026360117  0.046479836 4.6575538e-310 
     204  0.023141663  0.049840411 4.6575538e-310 
     206  0.020400354  0.052717987 4.6575538e-310 
     208  0.018217888  0.055025186 4.6575538e-310 
     210  0.016659134  0.056691705 4.6575538e-310 
     212  0.015770179  0.057666575 4.6575538e-310 
     214  0.015576989  0.057919792 4.6575538e-310 
     216  0.016084713  0.057443258 4.6575538e-310 
     218  0.017277634  0.056251017 4.6575538e-310 
     220  0.019119768  0.054378779 4.6575538e-310 
     222  0.021556056  0.051882749 4.6575538e-310 
     224  0.024514133  0.048837817 4.6575538e-310 
     226   0.02790658  0.045335168 4.6575538e-310 
     228  0.031633598   0.04147939 4.6575538e-310 
     230  0.035586025   0.03738519 4.6575538e-310 
     232  0.039648583  0.033173812 4.6575538e-310 
     234  0.043703282  0.028969295 4.6575538e-310 
     236  0.047632867  0.024894662 4.6575538e-310 
     238   0.05132421  0.021068192 4.6575538e-310 
     240  0.054671571  0.017599876 4.6575538e-310 
     242  0.057579606  0.014588168 4.6575538e-310 
     244  0.059966063  0.012117134 4.6575538e-310 
     246  0.061764077  0.010254095 4.6575538e-310 
     248     0.062924 0.0090478151 4.6575538e-310 
     250  0.063414715 0.0085273053 4.6575538e-310 
     252  0.063224384 0.0087012675 4.6575538e-310 
     254  0.062360615 0.0095581898 4.6575538e-310 
     256  0.060850036  0.011067085 4.6575538e-310 
     258  0.058737287  0.013178838 4.6575538e-310 
     260   0.05608345  0.015828115 4.6575538e-310 
     262  0.052963979   0.01893576 4.6575538e-310 
     264  0.049466184  0.022411583 4.6575538e-310 
     266  0.045686356  0.026157465 4.6575538e-310 
     268  0.041726625   0.03007063 4.6575538e-310 
     270  0.037691662  0.034047009 4.6575538e-310 
     272   0.03368534  0.037984541 4.6575538e-310 
     274  0.029807468  0.041786316 4.6575538e-310 
     276  0.026150721  0.045363448 4.6575538e-310 
     278  0.022797882  0.048637568 4.6575538e-310 
     280  0.019819483  0.051542869 4.6575538e-310 
     282   0.01727195  0.054027626 4.6575538e-310 
     284  0.015196304  0.056055152 4.6575538e-310 
     286  0.013617478  0.057604171 4.6575538e-310 
     288  0.012544256  0.058668605 4.6575538e-310 
     290  0.011969837  0.059256808 4.6575538e-310 
     292  0.011872987  0.059390286 4.6575538e-310 
     294  0.012219713  0.059101993 4.6575538e-310 
     296  0.012965385  0.058434268 4.6575538e-310 
     298  0.014057191  0.057436535 4.6575538e-310 
     300  0.015436803   0.05616286 4.6575538e-310 
     302  0.017043129  0.054669495 4.6575538e-310 
     304  0.018815005  0.053012515 4.6575538e-310 
     306  0.020693712  0.051245657 4.6575538e-310 
     308  0.022625174  0.049418446 4.6575538e-310 
     310  0.024561757  0.047574705 4.6575538e-310 
     312  0.026463575  0.045751481 4.6575538e-310 
     314   0.02829926  0.043978434 4.6575538e-310 
     316  0.030046182  0.042277691 4.6575538e-310 
     318  0.031690123  0.040664148 4.6575538e-310 
     320  0.033224458  0.039146168 4.6575538e-310 
     322  0.034648925  0.037726628 4.6575538e-310 
     324   0.03596807  0.036404215 4.6575538e-310 
     326  0.037189489  0.035174886 4.6575538e-310 
     328  0.038322003  0.034033388 4.6575538e-310 
     330  0.039373871  0.032974745 4.6575538e-310 
     332  0.040351184  0.031995594 4.6575538e-310 
     334  0.041256538  0.031095301 4.6575538e-310 
     336   0.04208807  0.030276785 4.6575538e-310 
     338  0.042838921  0.029546979 4.6575538e-310 
     340  0.043497159  0.028916925 4.6575538e-310 
     342  0.044046174  0.028401467 4.6575538e-310 
     344  0.044465503  0.028018578 4.6575538e-310 
     346  0.044732046  0.027788351 4.6575538e-310 
     348  0.044821595  0.027731712 4.6575538e-310 
     350  0.044710586  0.027868923 4.6575538e-310 
     352  0.044377964  0.028217976 4.6575538e-310 
     354  0.043807047  0.028792949 4.6575538e-310 
     356  0.042987297  0.029602444 4.6575538e-310 
     358  0.041915868  0.030648176 4.6575538e-310 
     360  0.040598851  0.031923815 4.6575538e-310 
     362   0.03905214  0.033414154 4.6575538e-310 
     364  0.037301851  0.035094646 4.6575538e-310 
     366  0.035384267  0.036931371 4.6575538e-310 
     368  0.033345288  0.038881443 4.6575538e-310 
     370  0.031239403  0.040893857 4.6575538e-310 
     372  0.029128213   0.04291076 4.6575538e-310 
     374   0.02707856  0.044869096 4.6575538e-310 
     376  0.025160337  0.046702587 4.6575538e-310 
     378  0.023444063  0.048343951 4.6575538e-310 
     380  0.021998319  0.049727287 4.6575538e-310 
     382  0.020887155   0.05079054 4.6575538e-310 
     384  0.020167565  0.051477923 4.6575538e-310 
     386  0.019887142  0.051742232 4.6575538e-310 
     388  0.020081992  0.051546927 4.6575538e-310 
     390  0.020775015  0.050867915 4.6575538e-310 
     392  0.021974599   0.04969495 4.6575538e-310 
     394  0.023673798  0.048032593 4.6575538e-310 
     396  0.025850024  0.045900673 4.6575538e-310 
     398  0.028465266  0.043334244 4.6575538e-310 
     400  0.031466846  0.040383009 4.6575538e-310 
     402   0.03478868  0.037110227 4.6575538e-310 
     404  0.038353003  0.033591136 4.6575538e-310 
     406  0.042072523  0.029910935 4.6575538e-310 
     408  0.045852911  0.026162391 4.6575538e-310 
     410  0.049595563  0.022443137 4.6575538e-310 
     412  0.053200541  0.018852764 4.6575538e-310 
     414  0.056569592  0.015489799 4.6575538e-310 
     416  0.059609158  0.012448656 4.6575538e-310 
     418  0.062233261 0.0098166921 4.6575538e-310 
     420  0.064366188 0.0076714333 4.6575538e-310 
     422  0.065944871    0.0060781 4.6575538e-310 
     424  0.066920881 0.0050874917 4.6575538e-310 
     426  0.067261985 0.0047343184 4.6575538e-310 
     428  0.066953187 0.0050360314 4.6575538e-310 
     430  0.065997239 0.0059921967 4.6575538e-310 
     432  0.064414589 0.0075844308 4.6575538e-310 
     434  0.062242777 0.0097769027 4.6575538e-310 
     436  0.059535286  0.012517383 4.6575538e-310 
     438  0.056359913  0.015738803 4.6575538e-310 
     440  0.052796689  0.019361271 4.6575538e-310 
     442  0.048935443  0.023294465 4.6575538e-310 
     444  0.044873094  0.027440338 4.6575538e-310 
     446  0.040710752   0.03169602 4.6575538e-310 
     448   0.03655075  0.035956835 4.6575538e-310 
     450  0.032493693  0.040119321 4.6575538e-310 
     452  0.028635625  0.044084165 4.6575538e-310 
     454   0.02506541  0.047758948 4.6575538e-310 
     456  0.021862395  0.051060627 4.6575538e-310 
     458  0.019094443  0.053917674 4.6575538e-310 
     460  0.016816351  0.056271818 4.6575538e-310 
     462  0.015068724  0.058079344 4.6575538e-310 
     464  0.013877294  0.059311932 4.6575538e-310 
     466  0.013252698   0.05995701 4.6575538e-310 
     468  0.013190693  0.060017646 4.6575538e-310 
     470  0.013672779  0.059511989 4.6575538e-310 
     472  0.014667199    0.0584723 4.6575538e-310 
     474  0.016130247  0.056943614 4.6575538e-310 
     476  0.018007857  0.054982098 4.6575538e-310 
     478   0.02023738   0.05265316 4.6575538e-310 
     480  0.022749519  0.050029381 4.6575538e-310 
     482  0.025470341  0.047188332 4.6575538e-310 
     484  0.028323314  0.044210361 4.6575538e-310 
     486  0.031231319  0.041176391 4.6575538e-310 
     488  0.034118575  0.038165816 4.6575538e-310 
     490  0.036912447  0.035254534 4.6575538e-310 
     492  0.039545083  0.032513171 4.6575538e-310 
     494  0.041954862  0.030005531 4.6575538e-310 
     496  0.044087618  0.027787315 4.6575538e-310 
     498  0.045897624   0.02590511 4.6575538e-310 
     500  0.047348326  0.024395675 4.6575538e-310 
     502  0.048412817  0.023285522 4.6575538e-310 
     504  0.049074063  0.022590781 4.6575538e-310 
     506  0.049324874  0.022317335 4.6575538e-310 
     508  0.049167643  0.022461205 4.6575538e-310 
     510  0.048613869  0.023009153 4.6575538e-310 
     512  0.047683498  0.023939478 4.6575538e-310 
     514  0.046404089  0.025222946 4.6575538e-310 
     516  0.044809863  0.026823847 4.6575538e-310 
     518  0.042940646  0.028701113 4.6575538e-310 
     520  0.040840767  0.030809472 4.6575538e-310 
     522  0.038557916    0.0331006 4.6575538e-310 
     524  0.036142026  0.035524239 4.6575538e-310 
     526  0.033644191  0.038029252 4.6575538e-310 
     528  0.031115645  0.040564603 4.6575538e-310 
     530  0.028606838  0.043080234 4.6575538e-310 
     532  0.026166605  0.045527838 4.6575538e-310 
     534  0.023841445  0.047861534 4.6575538e-310 
     536  0.021674906  0.050038431 4.6575538e-310 
     538  0.019707073  0.052019095 4.6575538e-310 
     540  0.017974142  0.053767946 4.6575538e-310 
     542  0.016508071  0.055253569 4.6575538e-310 
     544  0.015336291  0.056448989 4.6575538e-310 
     546  0.014481454  0.057331887 4.6575538e-310 
     548  0.013961216    0.0578848 4.6575538e-310 
     550   0.01378804  0.058095294 4.6575538e-310 
     552  0.013969007  0.057956121 4.6575538e-310 
     554  0.014505658  0.057465355 4.6575538e-310 
     556   0.01539385  0.056626508 4.6575538e-310 
     558  0.016623665   0.05544861 4.6575538e-310 
     560  0.018179366   0.05394624 4.6575538e-310 
     562  0.020039443  0.052139504 4.6575538e-310 
     564   0.02217675  0.050053924 4.6575538e-310 
     566  0.024558764  0.047720238 4.6575538e-310 
     568  0.027147972  0.045174103 4.6575538e-310 
     570  0.029902398  0.042455666 4.6575538e-310 
     572  0.032776265  0.039609031 4.6575538e-310 
     574  0.035720784  0.036681598 4.6575538e-310 
     576  0.038685057  0.033723291 4.6575538e-310 
     578  0.041617062  0.030785688 4.6575538e-310 
     580    0.0444647  0.027921063 4.6575538e-310 
     582  0.047176862  0.025181371 4.6575538e-310 
     584  0.049704492  0.022617191 4.6575538e-310 
     586  0.052001601  0.020276659 4.6575538e-310 
     588  0.054026215  0.018204416 4.6575538e-310 
     590  0.055741237  0.016440599 4.6575538e-310 
     592  0.057115185  0.015019894 4.6575538e-310 
     594  0.058122826  0.013970688 4.6575538e-310 
     596  0.058745674  0.013314322 4.6575538e-310 
     598  0.058972381  0.013064479 4.6575538e-310 
     600  0.058798997  0.013226711 4.6575538e-310 
     602   0.05822913  0.013798123 4.6575538e-310 
     604  0.057274001  0.014767222 4.6575538e-310 
     606  0.055952392  0.016113944 4.6575538e-310 
     608  0.054290494  0.017809854 4.6575538e-310 
     610  0.052321656   0.01981854 4.6575538e-310 
     612  0.050086004  0.022096183 4.6575538e-310 
     614  0.047629941  0.024592322 4.6575538e-310 
     616  0.045005496  0.027250796 4.6575538e-310 
     618  0.042269524  0.030010859 4.6575538e-310 
     620  0.039482728  0.032808455 4.6575538e-310 
     622  0.036708512  0.035577633 4.6575538e-310 
     624  0.034011673  0.038252076 4.6575538e-310 
     626  0.031456922  0.040766713 4.6575538e-310 
     628  0.029107298  0.043059372 4.6575538e-310 
     630  0.027022475  0.045072435 4.6575538e-310 
     632  0.025257046  0.046754441 4.6575538e-310 
     634  0.023858814  0.048061592 4.6575538e-310 
     636  0.022867184    0.0489591 4.6575538e-310 
     638  0.022311705  0.049422329 4.6575538e-310 
     640  0.022210847  0.049437689 4.6575538e-310 
     642  0.022571071   0.04900323 4.6575538e-310 
     644  0.023386251  0.048128911 4.6575538e-310 
     646  0.024637496  0.046836518 4.6575538e-310 
     648  0.026293398  0.045159228 4.6575538e-310 
     650  0.028310714   0.04314081 4.6575538e-310 
     652  0.030635476  0.040834504 4.6575538e-310 
     654  0.033204498  0.038301582 4.6575538e-310 
     656  0.035947227  0.035609659 4.6575538e-310 
     658  0.038787874  0.032830806 4.6575538e-310 
     660  0.041647735   0.03003952 4.6575538e-310 
     662  0.044447616  0.027310635 4.6575538e-310 
     664  0.047110258  0.024717245 4.6575538e-310 
     666   0.04956266  0.022328705 4.6575538e-310 
     668  0.051738208  0.020208792 4.6575538e-310 
     670   0.05357853  0.018414078 4.6575538e-310 
     672  0.055034994  0.016992561 4.6575538e-310 
     674  0.056069821  0.015982607 4.6575538e-310 
     676  0.056656761  0.015412207 4.6575538e-310 
     678  0.056781353  0.015298575 4.6575538e-310 
     680  0.056440768  0.015648059 4.6575538e-310 
     682  0.055643291  0.016456363 4.6575538e-310 
     684  0.054407481  0.017709036 4.6575538e-310 
     686    0.0527611  0.019382193 4.6575538e-310 
     688   0.05073986  0.021443409 4.6575538e-310 
     690  0.048386095  0.023852762 4.6575538e-310 
     692  0.045747402  0.026563945 4.6575538e-310 
     694  0.042875337  0.029525428 4.6575538e-310 
     696  0.039824191  0.032681617 4.6575538e-310 
     698  0.036649907  0.035973993 4.6575538e-310 
     700   0.03340913  0.039342195 4.6575538e-310 
     702  0.030158398  0.042725053 4.6575538e-310 
     704  0.026953468  0.046061546 4.6575538e-310 
     706  0.023848733  0.049291713 4.6575538e-310 
     708  0.020896722  0.052357504 4.6575538e-310 
     710  0.018147612  0.055203597 4.6575538e-310 
     712  0.015648758  0.057778181 4.6575538e-310 
     714  0.013444176  0.060033724 4.6575538e-310 
     716  0.011573983  0.061927727 4.6575538e-310 
     718  0.010073769   0.06342346 4.6575538e-310 
     720 0.0089739135  0.064490683 4.6575538e-310 
     722 0.0082988517  0.065106334 4.6575538e-310 
     724 0.0080663278   0.06525516 4.6575538e-310 
     726 0.0082866603  0.064930279 4.6575538e-310 
     728 0.0089620678  0.064133635 4.6575538e-310 
     730    0.0100861  0.062876315 4.6575538e-310 
     732   0.01164322   0.06117871 4.6575538e-310 
     734  0.013608584  0.059070479 4.6575538e-310 
     736  0.015948057  0.056590296 4.6575538e-310 
     738  0.018618487  0.053785372 4.6575538e-310 
     740  0.021568267  0.050710731 4.6575538e-310 
     742  0.024738184  0.047428246 4.6575538e-310 
     744  0.028062552  0.044005445 4.6575538e-310 
     746  0.031470601  0.040514106 4.6575538e-310 
     748  0.034888103  0.037028671 4.6575538e-310 
     750  0.038239177  0.033624516 4.6575538e-310 
     752  0.041448225  0.030376121 4.6575538e-310 
     754   0.04444194  0.027355202 4.6575538e-310 
     756  0.047151318  0.024628842 4.6575538e-310 
     758    0.0495136  0.022257695 4.6575538e-310 
     760  0.051474093  0.020294319 4.6575538e-310 
     762  0.052987794  0.018781674 4.6575538e-310 
     764  0.054020761  0.017751864 4.6575538e-310 
     766   0.05455119  0.017225137 4.6575538e-310 
     768  0.054570162  0.017209206 4.6575538e-310 
     770  0.054082016  0.017698895 4.6575538e-310 
     772  0.053104357   0.01867614 4.6575538e-310 
     774   0.05166768  0.020110345 4.6575538e-310 
     776  0.049814622  0.021959089 4.6575538e-310 
     778  0.047598872  0.024169171 4.6575538e-310 
     780  0.045083754  0.026677963 4.6575538e-310 
     782  0.042340545  0.029415033 4.6575538e-310 
     784  0.039446549  0.032304005 4.6575538e-310 
     786  0.036483007  0.035264592 4.6575538e-310 
     788  0.033532883  0.038214754 4.6575538e-310 
     790  0.030678598   0.04107291 4.6575538e-310 
     792  0.027999772  0.043760152 4.6575538e-310 
     794  0.025571047   0.04620239 4.6575538e-310 
     796  0.023460037  0.048332357 4.6575538e-310 
     798  0.021725483  0.050091432 4.6575538e-310 
     800  0.020415659  0.051431202 4.6575538e-310 
     802  0.019567086  0.052314741 4.6575538e-310 
     804  0.019203582  0.052717539 4.6575538e-310 
     806  0.019335703  0.052628077 4.6575538e-310 
     808  0.019960571  0.052048007 4.6575538e-310 
     810  0.021062111   0.05099195 4.6575538e-310 
     812  0.022611687  0.049486917 4.6575538e-310 
     814  0.024569116  0.047571359 4.6575538e-310 
     816  0.026884027   0.04529391 4.6575538e-310 
     818  0.029497503  0.042711832 4.6575538e-310 
     820  0.032343965  0.039889255 4.6575538e-310 
     822  0.035353207  0.036895245 4.6575538e-310 
     824  0.038452519  0.033801791 4.6575538e-310 
     826  0.041568802  0.030681767 4.6575538e-310 
     828  0.044630615  0.027606945 4.6575538e-310 
     830  0.047570061  0.024646127 4.6575538e-310 
     832  0.050324462  0.021863453 4.6575538e-310 
     834  0.052837757  0.019316926 4.6575538e-310 
     836  0.055061604  0.017057206 4.6575538e-310 
     838   0.05695615  0.015126691 4.6575538e-310 
     840  0.058490478  0.013558893 4.6575538e-310 
     842  0.059642739  0.012378115 4.6575538e-310 
     844       0.0604  0.011599408 4.6575538e-310 
     846  0.060757848  0.011228794 4.6575538e-310 
     848  0.060719801  0.011263704 4.6575538e-310 
     850  0.060296579  0.011693617 4.6575538e-310 
     852   0.05950528  0.012500834 4.6575538e-310 
     854   0.05836852  0.013661356 4.6575538e-310 
     856  0.056913583   0.01514582 4.6575538e-310 
     858  0.055171598  0.016920461 4.6575538e-310 
     860  0.053176791  0.018948051 4.6575538e-310 
     862  0.050965796  0.021188809 4.6575538e-310 
     864  0.048577062  0.023601241 4.6575538e-310 
     866  0.046050316  0.026142915 4.6575538e-310 
     868  0.043426096  0.028771146 4.6575538e-310 
     870   0.04074532  0.031443611 4.6575538e-310 
     872  0.038048884  0.034118872 4.6575538e-310 
     874  0.035377264  0.036756836 4.6575538e-310 
     876  0.032770111   0.03931915 4.6575538e-310 
     878  0.030265832  0.041769537 4.6575538e-310 
     880  0.027901147  0.044074099 4.6575538e-310 
     882  0.025710627  0.046201574 4.6575538e-310 
     884  0.023726226  0.048123577 4.6575538e-310 
     886  0.021976809  0.049814814 4.6575538e-310 
     888    0.0204877  0.051253285 4.6575538e-310 
     890  0.019280255  0.052420475 4.6575538e-310 
     892  0.018371495  0.053301541 4.6575538e-310 
     894  0.017773791  0.053885482 4.6575538e-310 
     896  0.017494617   0.05416531 4.6575538e-310 
     898   0.01753639   0.05413821 4.6575538e-310 
     900  0.017896372   0.05380569 4.6575538e-310 
     902  0.018566659  0.053173715 4.6575538e-310 
     904  0.019534224  0.052252825 4.6575538e-310 
     906  0.020781027  0.051058229 4.6575538e-310 
     908  0.022284165  0.049609863 4.6575538e-310 
     910  0.024016081  0.047932401 4.6575538e-310 
     912  0.025944796  0.046055211 4.6575538e-310 
     914  0.028034194  0.044012236 4.6575538e-310 
     916  0.030244356  0.041841778 4.6575538e-310 
     918  0.032531947  0.039586184 4.6575538e-310 
     920  0.034850683  0.037291399 4.6575538e-310 
     922  0.037151887  0.035006379 4.6575538e-310 
     924  0.039385152  0.032782358 4.6575538e-310 
     926  0.041499135  0.030671957 4.6575538e-310 
     928  0.043442468  0.028728141 4.6575538e-310 
     930  0.045164816  0.027003034 4.6575538e-310 
     932   0.04661805  0.025546605 4.6575538e-310 
     934  0.047757526  0.024405271 4.6575538e-310 
     936  0.048543443  0.023620431 4.6575538e-310 
     938  0.048942223  0.023227005 4.6575538e-310 
     940  0.048927879  0.023252011 4.6575538e-310 
     942  0.048483297  0.023713246 4.6575538e-310 
     944  0.047601377  0.024618139 4.6575538e-310 
     946  0.046285968  0.025962829 4.6575538e-310 
     948  0.044552535  0.027731518 4.6575538e-310 
     950  0.042428502  0.029896167 4.6575538e-310 
     952  0.039953234  0.032416552 4.6575538e-310 
     954   0.03717762   0.03524073 4.6575538e-310 
     956   0.03416325  0.038305895 4.6575538e-310 
     958  0.030981184  0.041539657 4.6575538e-310 
     960  0.027710339  0.044861689 4.6575538e-310 
     962  0.024435527  0.048185725 4.6575538e-310 
     964  0.021245201  0.051421847 4.6575538e-310 
     966  0.018228984  0.054478994 4.6575538e-310 
     968  0.015475046  0.057267617 4.6575538e-310 
     970   0.01306743   0.05970239 4.6575538e-310 
     972  0.011083421  0.061704884 4.6575538e-310 
     974 0.0095910376  0.063206119 4.6575538e-310 
     976 0.0086467494   0.06414889 4.6575538e-310 
     978 0.0082934975  0.064489786 4.6575538e-310 
     980 0.0085590926  0.064200838 4.6575538e-310 
     982 0.0094550523  0.063270713 4.6575538e-310 
     984   0.01097592  0.061705416 4.6575538e-310 
     986    0.0130991   0.05952847 4.6575538e-310 
     988   0.01578521  0.056780552 4.6575538e-310 
     990  0.018978959  0.053518591 4.6575538e-310 
     992  0.022610512  0.049814359 4.6575538e-310 
     994  0.026597312  0.045752581 4.6575538e-310 
     996  0.030846304  0.041428629 4.6575538e-310 
     998  0.035256482  0.036945864 4.6575538e-310 
    1000  0.039721702  0.032412721 4.6575538e-310 
    1002  0.044133661  0.027939606 4.6575538e-310 
    1004  0.048384954  0.023635722 4.6575538e-310 
    1006  0.052372123  0.019605912 4.6575538e-310 
    1008  0.055998603  0.015947623 4.6575538e-310 
    1010  0.059177481  0.012748083 4.6575538e-310 
    1012  0.061833973  0.010081786 4.6575538e-310 
    1014  0.063907564 0.0080083592 4.6575538e-310 
    1016  0.065353724 0.0065708802 4.6575538e-310 
    1018  0.066145168 0.0057947053 4.6575538e-310 
    1020  0.066272595 0.0056868375 4.6575538e-310 
    1022  0.065744905 0.0062358616 4.6575538e-310 
    1024   0.06458886  0.007412446 4.6575538e-310 
    1026  0.062848207 0.0091703974 4.6575538e-310 
    1028  0.060582284  0.011448234 4.6575538e-310 
    1030  0.057864135  0.014171223 4.6575538e-310 
    1032  0.054778212  0.017253827 4.6575538e-310 
    1034  0.051417701  0.020602456 4.6575538e-310 
    1036  0.047881591   0.02411846 4.6575538e-310 
    1038  0.044271551  0.027701234 4.6575538e-310 
    1040  0.040688748  0.031251353 4.6575538e-310 
    1042  0.037230688  0.034673606 4.6575538e-310 
    1044  0.033988216  0.037879843 4.6575538e-310 
    1046  0.031042777  0.040791524 4.6575538e-310 
    1048  0.028464027   0.04334189 4.6575538e-310 
    1050  0.026307909  0.045477672 4.6575538e-310 
    1052  0.024615238  0.047160296 4.6575538e-310 
    1054  0.023410875  0.048366533 4.6575538e-310 
    1056  0.022703493  0.049088599 4.6575538e-310 
    1058  0.022485954   0.04933369 4.6575538e-310 
    1060  0.022736261  0.049123008 4.6575538e-310 
    1062  0.023419048  0.048490315 4.6575538e-310 
    1064  0.024487511  0.047480096 4.6575538e-310 
    1066  0.025885708   0.04614541 4.6575538e-310 
    1068  0.027551107  0.044545542 4.6575538e-310 
    1070  0.029417249  0.042743549 4.6575538e-310 
    1072  0.031416428  0.040803815 4.6575538e-310 
    1074   0.03348224  0.038789719 4.6575538e-310 
    1076  0.035551909  0.036761508 4.6575538e-310 
    1078  0.037568279   0.03477447 4.6575538e-310 
    1080  0.039481397  0.032877453 4.6575538e-310 
    1082  0.041249648  0.031111793 4.6575538e-310 
    1084  0.042840388  0.029510673 4.6575538e-310 
    1086    0.0442301   0.02809891 4.6575538e-310 
    1088  0.045404087  0.026893148 4.6575538e-310 
    1090  0.046355738  0.025902434 4.6575538e-310 
    1092  0.047085471  0.025129097 4.6575538e-310 
    1094  0.047599394   0.02456988 4.6575538e-310 
    1096  0.047907815  0.024217228 4.6575538e-310 
    1098  0.048023684  0.024060658 4.6575538e-310 
    1100  0.047961068  0.024088118 4.6575538e-310 
    1102  0.047733758  0.024287252 4.6575538e-310 
    1104  0.047354088  0.024646506 4.6575538e-310 
    1106  0.046832022  0.025156002 4.6575538e-310 
    1108  0.046174586  0.025808139 4.6575538e-310 
    1110   0.04538563  0.026597896 4.6575538e-310 
    1112  0.044465963  0.027522813 4.6575538e-310 
    1114  0.043413823  0.028582674 4.6575538e-310 
    1116  0.042225654  0.029778903 4.6575538e-310 
    1118   0.04089712  0.031113729 4.6575538e-310 
    1120  0.039424316  0.032589155 4.6575538e-310 
    1122  0.037805058  0.034205824 4.6575538e-310 
    1124  0.036040207   0.03596183 4.6575538e-310 
    1126  0.034134899  0.037851563 4.6575538e-310 
    1128  0.032099644  0.039864662 4.6575538e-310 
    1130  0.029951179  0.041985144 4.6575538e-310 
    1132  0.027713039  0.044190778 4.6575538e-310 
    1134  0.025415799  0.046452743 4.6575538e-310 
    1136  0.023096939  0.048735625 4.6575538e-310 
    1138  0.020800343  0.050997761 4.6575538e-310 
    1140  0.018575427  0.053191946 4.6575538e-310 
    1142  0.016475916  0.055266487 4.6575538e-310 
    1144  0.014558326   0.05716658 4.6575538e-310 
    1146  0.012880187  0.058835966 4.6575538e-310 
    1148   0.01149808  0.060218815 4.6575538e-310 
    1150  0.010465561  0.061261757 4.6575538e-310 
    1152 0.0098310488  0.061916001 4.6575538e-310 
    1154 0.0096357511  0.062139446 4.6575538e-310 
    1156 0.0099117225  0.061898697 4.6575538e-310 
    1158  0.010680121  0.061170913 4.6575538e-310 
    1160  0.011949744  0.059945387 4.6575538e-310 
    1162  0.013715901  0.058224789 4.6575538e-310 
    1164  0.015959701  0.056026013 4.6575538e-310 
    1166  0.018647768  0.053380554 4.6575538e-310 
    1168  0.021732452  0.050334399 4.6575538e-310 
    1170  0.025152536  0.046947389 4.6575538e-310 
    1172  0.028834437  0.043292064 4.6575538e-310 
    1174  0.032693901  0.039452001 4.6575538e-310 
    1176  0.036638143  0.035519683 4.6575538e-310 
    1178  0.040568386  0.031593955 4.6575538e-310 
    1180  0.044382728  0.027777147 4.6575538e-310 
    1182   0.04797924   0.02417195 4.6575538e-310 
    1184  0.051259202  0.020878151 4.6575538e-310 
    1186  0.054130362  0.017989349 4.6575538e-310 
    1188  0.056510088  0.015589757 4.6575538e-310 
    1190  0.058328304  0.013751222 4.6575538e-310 
    1192   0.05953008  0.012530584 4.6575538e-310 
    1194  0.060077782  0.011967457 4.6575538e-310 
    1196  0.059952675  0.012082551 4.6575538e-310 
    1198  0.059155908   0.01287659 4.6575538e-310 
    1200   0.05770884  0.014329891 4.6575538e-310 
    1202  0.055652676  0.016402618 4.6575538e-310 
    1204  0.053047418  0.019035724 4.6575538e-310 
    1206  0.049970168  0.022152553 4.6575538e-310 
    1208  0.046512831   0.02566105 4.6575538e-310 
    1210  0.042779321  0.029456508 4.6575538e-310 
    1212  0.038882342  0.033424764 4.6575538e-310 
    1214  0.034939889  0.037445724 4.6575538e-310 
    1216  0.031071565  0.041397106 4.6575538e-310 
    1218  0.027394872  0.045158265 4.6575538e-310 
    1220  0.024021575  0.048613974 4.6575538e-310 
    1222  0.021054282  0.051658034 4.6575538e-310 
    1224   0.01858333  0.054196578 4.6575538e-310 
    1226  0.016684091  0.056150989 4.6575538e-310 
    1228  0.015414767  0.057460298 4.6575538e-310 
    1230  0.014814733  0.058083023 4.6575538e-310 
    1232  0.014903481  0.057998371 4.6575538e-310 
    1234  0.015680176   0.05720677 4.6575538e-310 
    1236  0.017123838  0.055729731 4.6575538e-310 
    1238  0.019194129  0.053609036 4.6575538e-310 
    1240  0.021832713  0.050905296 4.6575538e-310 
    1242  0.024965151  0.047695926 4.6575538e-310 
    1244  0.028503253  0.044072605 4.6575538e-310 
    1246  0.032347828  0.040138318 4.6575538e-310 
    1248  0.036391739   0.03600407 4.6575538e-310 
    1250  0.040523171  0.031785394 4.6575538e-310 
    1252  0.044629002  0.027598751 4.6575538e-310 
    1254  0.048598194   0.02355797 4.6575538e-310 
    1256  0.052325072  0.019770809 4.6575538e-310 
    1258  0.055712407  0.016335788 4.6575538e-310 
    1260  0.058674197  0.013339366 4.6575538e-310 
    1262  0.061138056  0.010853567 4.6575538e-310 
    1264  0.063047135 0.0089341248 4.6575538e-310 
    1266  0.064361514  0.007619209 4.6575538e-310 
    1268   0.06505902 0.0069287511 4.6575538e-310 
    1270  0.065135448 0.0068643975 4.6575538e-310 
    1272  0.064604186 0.0074100712 4.6575538e-310 
    1274  0.063495258 0.0085331097 4.6575538e-310 
    1276  0.061853834  0.010185926 4.6575538e-310 
    1278  0.059738271  0.012308119 4.6575538e-310 
    1280  0.057217757  0.014828944 4.6575538e-310 
    1282  0.054369669  0.017670042 4.6575538e-310 
    1284  0.051276734  0.020748321 4.6575538e-310 
    1286  0.048024119   0.02397887 4.6575538e-310 
    1288  0.044696557  0.027277801 4.6575538e-310 
    1290  0.041375619   0.03056491 4.6575538e-310 
    1292  0.038137234  0.033766059 4.6575538e-310 
    1294  0.035049545  0.036815203 4.6575538e-310 
    1296  0.032171176  0.039655985 4.6575538e-310 
    1298  0.029549952  0.042242875 4.6575538e-310 
    1300  0.027222124    0.0445418 4.6575538e-310 
    1302  0.025212088  0.046530288 4.6575538e-310 
    1304  0.023532597  0.048197135 4.6575538e-310 
    1306  0.022185442  0.049541625 4.6575538e-310 
    1308  0.021162528   0.05057238 4.6575538e-310 
    1310  0.020447304  0.051305895 4.6575538e-310 
    1312  0.020016447  0.051764847 4.6575538e-310 
    1314  0.019841715  0.051976282 4.6575538e-310 
    1316  0.019891873  0.051969746 4.6575538e-310 
    1318  0.020134601  0.051775495 4.6575538e-310 
    1320  0.020538269  0.051422832 4.6575538e-310 
    1322  0.021073521  0.050938677 4.6575538e-310 
    1324   0.02171456  0.050346428 4.6575538e-310 
    1326  0.022440105  0.049665159 4.6575538e-310 
    1328  0.023233952  0.048909192 4.6575538e-310 
    1330  0.024085131   0.04808805 4.6575538e-310 
    1332  0.024987665  0.047206784 4.6575538e-310 
    1334  0.025939932  0.046266638 4.6575538e-310 
    1336   0.02694371  0.045266016 4.6575538e-310 
    1338  0.028002936  0.044201675 4.6575538e-310 
    1340  0.029122281  0.043070069 4.6575538e-310 
    1342  0.030305631  0.041868767 4.6575538e-310 
    1344  0.031554566  0.040597834 4.6575538e-310 
    1346  0.032866953  0.039261118 4.6575538e-310 
    1348  0.034235734  0.037867318 4.6575538e-310 
    1350  0.035648005   0.03643079 4.6575538e-310 
    1352   0.03708446  0.034972017 4.6575538e-310 
    1354  0.038519241  0.033517693 4.6575538e-310 
    1356  0.039920226  0.032100408 4.6575538e-310 
    1358  0.041249773   0.03075792 4.6575538e-310 
    1360  0.042465868  0.029532043 4.6575538e-310 
    1362  0.043523666  0.028467174 4.6575538e-310 
    1364   0.04437733  0.027608537 4.6575538e-310 
    1366  0.044982109  0.027000198 4.6575538e-310 
    1368   0.04529653  0.026682958 4.6575538e-310 
    1370  0.045284624  0.026692206 4.6575538e-310 
    1372  0.044918061  0.027055842 4.6575538e-310 
    1374  0.044178096   0.02779237 4.6575538e-310 
    1376  0.043057222  0.028909252 4.6575538e-310 
    1378  0.041560448  0.030401622 4.6575538e-310 
    1380  0.039706134  0.032251424 4.6575538e-310 
    1382  0.037526315  0.034427032 4.6575538e-310 
    1384  0.035066504  0.036883405 4.6575538e-310 
    1386  0.032384945  0.039562776 4.6575538e-310 
    1388  0.029551334  0.042395884 4.6575538e-310 
    1390  0.026645037  0.045303712 4.6575538e-310 
    1392  0.023752854  0.048199703 4.6575538e-310 
    1394  0.020966406  0.050992354 4.6575538e-310 
    1396  0.018379217  0.053588137 4.6575538e-310 
    1398  0.016083598  0.055894622 4.6575538e-310 
    1400  0.014167442    0.0578237 4.6575538e-310 
    1402  0.012711032  0.059294785 4.6575538e-310 
    1404     0.011784  0.060237884 4.6575538e-310 
    1406  0.011442536  0.060596394 4.6575538e-310 
    1408  0.011726966  0.060329534 4.6575538e-310 
    1410  0.012659801  0.059414306 4.6575538e-310 
    1412  0.014244344  0.057846884 4.6575538e-310 
    1414  0.016463921  0.055643389 4.6575538e-310 
    1416  0.019281793  0.052839982 4.6575538e-310 
    1418  0.022641762  0.049492269 4.6575538e-310 
    1420  0.026469474  0.045674016 4.6575538e-310 
    1422  0.030674387  0.041475217 4.6575538e-310 
    1424  0.035152348  0.036999549 4.6575538e-310 
    1426  0.039788691  0.032361324 4.6575538e-310 
    1428  0.044461756  0.027682021 4.6575538e-310 
    1430  0.049046705  0.023086513 4.6575538e-310 
    1432  0.053419491  0.018699145 4.6575538e-310 
    1434  0.057460846  0.014639765 4.6575538e-310 
    1436  0.061060135  0.011019886 4.6575538e-310 
    1438  0.064118935 0.0079390858 4.6575538e-310 
    1440  0.066554217  0.005481793 4.6575538e-310 
    1442  0.068301009 0.0037145637 4.6575538e-310 
    1444  0.069314446 0.0026839464 4.6575538e-310 
    1446  0.069571152 0.0024150113 4.6575538e-310 
    1448  0.069069886 0.0029105933 4.6575538e-310 
    1450  0.067831466 0.0041512709 4.6575538e-310 
    1452  0.065897949  0.006096079 4.6575538e-310 
    1454   0.06333114 0.0086839262 4.6575538e-310 
    1456  0.060210453  0.011835661 4.6575538e-310 
    1458  0.056630239  0.015456713 4.6575538e-310 
    1460  0.052696653  0.019440204 4.6575538e-310 
    1462  0.048524196  0.023670431 4.6575538e-310 
    1464  0.044232036  0.028026583 4.6575538e-310 
    1466  0.039940245  0.032386569 4.6575538e-310 
    1468  0.035766082  0.036630826 4.6575538e-310 
    1470  0.031820439  0.040645966 4.6575538e-310 
    1472  0.028204575  0.044328157 4.6575538e-310 
    1474  0.025007237  0.047586118 4.6575538e-310 
    1476  0.022302263  0.050343627 4.6575538e-310 
    1478  0.020146731  0.052541479 4.6575538e-310 
    1480  0.018579713  0.054138838 4.6575538e-310 
    1482  0.017621655   0.05511394 4.6575538e-310 
    1484  0.017274381  0.055464156 4.6575538e-310 
    1486  0.017521718  0.055205417 4.6575538e-310 
    1488  0.018330681  0.054371052 4.6575538e-310 
    1490  0.019653176  0.053010087 4.6575538e-310 
    1492  0.021428118    0.0511851 4.6575538e-310 
    1494    0.0235839  0.048969696 4.6575538e-310 
    1496  0.026041081  0.046445739 4.6575538e-310 
    1498  0.028715216  0.043700419 4.6575538e-310 
    1500  0.031519697  0.040823285 4.6575538e-310 
    1502  0.034368519   0.03790334 4.6575538e-310 
    1504  0.037178865  0.035026308 4.6575538e-310 
    1506  0.039873436  0.032272153 4.6575538e-310 
    1508   0.04238245  0.029712941 4.6575538e-310 
    1510  0.044645264  0.027411088 4.6575538e-310 
    1512  0.046611583  0.025418051 4.6575538e-310 
    1514  0.048242234  0.023773475 4.6575538e-310 
    1516  0.049509516   0.02250481 4.6575538e-310 
    1518  0.050397139  0.021627367 4.6575538e-310 
    1520  0.050899784  0.021144803 4.6575538e-310 
    1522  0.051022334   0.02104996 4.6575538e-310 
    1524  0.050778831  0.021326033 4.6575538e-310 
    1526  0.050191219  0.021947967 4.6575538e-310 
    1528  0.049287939  0.022884026 4.6575538e-310 
    1530  0.048102458  0.024097456 4.6575538e-310 
    1532  0.046671774   0.02554816 4.6575538e-310 
    1534  0.045034984  0.027194323 4.6575538e-310 
    1536  0.043231945  0.028993911 4.6575538e-310 
    1538  0.041302094  0.030906007 4.6575538e-310 
    1540  0.039283442  0.032891917 4.6575538e-310 
    1542  0.037211783  0.034916042 4.6575538e-310 
    1544  0.035120113  0.036946481 4.6575538e-310 
    1546  0.033038269  0.038955366 4.6575538e-310 
    1548  0.030992774  0.040918944 4.6575538e-310 
    1550  0.029006876  0.042817421 4.6575538e-310 
    1552  0.027100731  0.044634604 4.6575538e-310 
    1554  0.025291738  0.046357371 4.6575538e-310 
    1556  0.023594946  0.047975031 4.6575538e-310 
    1558   0.02202353  0.049478608 4.6575538e-310 
    1560  0.020589283  0.050860107 4.6575538e-310 
    1562   0.01930309   0.05211181 4.6575538e-310 
    1564  0.018175357  0.053225646 4.6575538e-310 
    1566  0.017216364  0.054192684 4.6575538e-310 
    1568  0.016436517  0.055002773 4.6575538e-310 
    1570  0.015846489  0.055644363 4.6575538e-310 
    1572  0.015457222  0.056104522 4.6575538e-310 
    1574  0.015279802  0.056369161 4.6575538e-310 
    1576  0.015325192  0.056423451 4.6575538e-310 
    1578  0.015603833  0.056252436 4.6575538e-310 
    1580   0.01612512  0.055841811 4.6575538e-310 
    1582  0.016896776  0.055178834 4.6575538e-310 
    1584  0.017924133  0.054253331 4.6575538e-310 
    1586  0.019209361   0.05305875 4.6575538e-310 
    1588  0.020750673  0.051593213 4.6575538e-310 
    1590  0.022541535  0.049860506 4.6575538e-310 
    1592  0.024569942  0.047870957 4.6575538e-310 
    1594  0.026817783  0.045642139 4.6575538e-310 
    1596  0.029260369  0.043199353 4.6575538e-310 
    1598  0.031866135  0.040575846 4.6575538e-310 
    1600  0.034596596  0.037812715 4.6575538e-310 
    1602  0.037406564  0.034958485 4.6575538e-310 
    1604  0.040244674  0.032068343 4.6575538e-310 
    1606  0.043054228  0.029203019 4.6575538e-310 
    1608  0.045774355  0.026427349 4.6575538e-310 
    1610  0.048341494  0.023808531 4.6575538e-310 
    1612  0.050691143  0.021414141 4.6575538e-310 
    1614   0.05275985  0.019309959 4.6575538e-310 
    1616  0.054487377  0.017557682 4.6575538e-310 
    1618  0.055818945  0.016212619 4.6575538e-310 
    1620  0.056707492  0.015321447 4.6575538e-310 
    1622  0.057115829   0.01492013 4.6575538e-310 
    1624  0.057018592  0.015032094 4.6575538e-310 
    1626  0.056403902  0.015666754 4.6575538e-310 
    1628  0.055274625   0.01681845 4.6575538e-310 
    1630  0.053649163  0.018465888 4.6575538e-310 
    1632  0.051561701  0.020572095 4.6575538e-310 
    1634  0.049061883  0.023084957 4.6575538e-310 
    1636  0.046213878    0.0259383 4.6575538e-310 
    1638  0.043094878  0.029053528 4.6575538e-310 
    1640  0.039793025  0.032341761 4.6575538e-310 
    1642  0.036404869  0.035706404 4.6575538e-310 
    1644  0.033032411  0.039046076 4.6575538e-310 
    1646   0.02977986  0.042257785 4.6575538e-310 
    1648  0.026750206   0.04524025 4.6575538e-310 
    1650  0.024041759  0.047897233 4.6575538e-310 
    1652  0.021744765  0.050140775 4.6575538e-310 
    1654  0.019938251  0.051894207 4.6575538e-310 
    1656  0.018687203  0.053094822 4.6575538e-310 
    1658  0.018040208  0.053696118 4.6575538e-310 
    1660  0.018027624  0.053669506 4.6575538e-310 
    1662  0.018660372  0.053005447 4.6575538e-310 
    1664  0.019929387  0.051713949 4.6575538e-310 
    1666  0.021805739  0.049824414 4.6575538e-310 
    1668  0.024241439  0.047384845 4.6575538e-310 
    1670   0.02717088  0.044460424 4.6575538e-310 
    1672  0.030512876   0.04113153 4.6575538e-310 
    1674  0.034173216  0.037491249 4.6575538e-310 
    1676  0.038047642  0.033642475 4.6575538e-310 
    1678  0.042025153  0.029694698 4.6575538e-310 
    1680  0.045991505  0.025760591 4.6575538e-310 
    1682  0.049832806  0.021952517 4.6575538e-310 
    1684  0.053439056  0.018379068 4.6575538e-310 
    1686   0.05670754  0.015141762 4.6575538e-310 
    1688  0.059545934  0.012331998 4.6575538e-310 
    1690   0.06187504  0.010028381 4.6575538e-310 
    1692  0.063631052 0.0082944914 4.6575538e-310 
    1694  0.064767282 0.0071771705 4.6575538e-310 
    1696  0.065255298  0.006705375 4.6575538e-310 
    1698  0.065085444 0.0068896254 4.6575538e-310 
    1700  0.064266736 0.0077220551 4.6575538e-310 
    1702  0.062826147 0.0091770463 4.6575538e-310 
    1704  0.060807328  0.011212416 4.6575538e-310 
    1706  0.058268819  0.013771098 4.6575538e-310 
    1708  0.055281823  0.016783247 4.6575538e-310 
    1710  0.051927657  0.020168688 4.6575538e-310 
    1712  0.048294948  0.023839597 4.6575538e-310 
    1714  0.044476722  0.027703341 4.6575538e-310 
    1716  0.040567458  0.031665342 4.6575538e-310 
    1718  0.036660251  0.035631888 4.6575538e-310 
    1720  0.032844153  0.039512788 4.6575538e-310 
    1722  0.029201788  0.043223782 4.6575538e-310 
    1724  0.025807327   0.04668864 4.6575538e-310 
    1726  0.022724854  0.049840896 4.6575538e-310 
    1728   0.02000717  0.052625161 4.6575538e-310 
    1730  0.017695048  0.054998018 4.6575538e-310 
    1732  0.015816938  0.056928477 4.6575538e-310 
    1734  0.014389081  0.058398004 4.6575538e-310 
    1736  0.013416022   0.05940017 4.6575538e-310 
    1738  0.012891437  0.059939939 4.6575538e-310 
    1740  0.012799241   0.06003267 4.6575538e-310 
    1742   0.01311488  0.059702883 4.6575538e-310 
    1744  0.013806764  0.058982858 4.6575538e-310 
    1746   0.01483774  0.057911137 4.6575538e-310 
    1748  0.016166565  0.056530993 4.6575538e-310 
    1750  0.017749304  0.054888926 4.6575538e-310 
    1752   0.01954061  0.053033243 4.6575538e-310 
    1754  0.021494844  0.051012762 4.6575538e-310 
    1756  0.023567024  0.048875677 4.6575538e-310 
    1758   0.02571357  0.046668601 4.6575538e-310 
    1760  0.027892878  0.044435801 4.6575538e-310 
    1762  0.030065704  0.042218625 4.6575538e-310 
    1764   0.03219541  0.040055103 4.6575538e-310 
    1766  0.034248088  0.037979709 4.6575538e-310 
    1768  0.036192602  0.036023258 4.6575538e-310 
    1770   0.03800058  0.034212909 4.6575538e-310 
    1772  0.039646408  0.032572235 4.6575538e-310 
    1774  0.041107224  0.031121345 4.6575538e-310 
    1776  0.042362969   0.02987702 4.6575538e-310 
    1778  0.043396486  0.028852836 4.6575538e-310 
    1780  0.044193673  0.028059277 4.6575538e-310 
    1782  0.044743701  0.027503796 4.6575538e-310 
    1784  0.045039254   0.02719085 4.6575538e-310 
    1786  0.045076793  0.027121886 4.6575538e-310 
    1788   0.04485681  0.027295297 4.6575538e-310 
    1790  0.044384038  0.027706359 4.6575538e-310 
    1792  0.043667596  0.028347151 4.6575538e-310 
    1794  0.042721044  0.029206483 4.6575538e-310 
    1796   0.04156233  0.030269846 4.6575538e-310 
    1798   0.04021362  0.031519394 4.6575538e-310 
    1800  0.038701007  0.032933973 4.6575538e-310 
    1802  0.037054111  0.034489203 4.6575538e-310 
    1804   0.03530558  0.036157632 4.6575538e-310 
    1806  0.033490515   0.03790895 4.6575538e-310 
    1808  0.031645842  0.039710284 4.6575538e-310 
    1810  0.029809659  0.041526559 4.6575538e-310 
    1812  0.028020571  0.043320935 4.6575538e-310 
    1814  0.026317052  0.045055313 4.6575538e-310 
    1816  0.024736824  0.046690911 4.6575538e-310 
    1818   0.02331628  0.048188902 4.6575538e-310 
    1820  0.022089936  0.049511113 4.6575538e-310 
    1822  0.021089917  0.050620782 4.6575538e-310 
    1824  0.020345462  0.051483354 4.6575538e-310 
    1826  0.019882427  0.052067318 4.6575538e-310 
    1828  0.019722786   0.05234507 4.6575538e-310 
    1830  0.019884119  0.052293767 4.6575538e-310 
    1832  0.020379068   0.05189618 4.6575538e-310 
    1834  0.021214791  0.051141489 4.6575538e-310 
    1836  0.022392405  0.050026013 4.6575538e-310 
    1838  0.023906455   0.04855383 4.6575538e-310 
    1840  0.025744448  0.046737249 4.6575538e-310 
    1842  0.027886467  0.044597115 4.6575538e-310 
    1844  0.030304941  0.042162899 4.6575538e-310 
    1846  0.032964594  0.039472544 4.6575538e-310 
    1848  0.035822616  0.036572065 4.6575538e-310 
    1850  0.038829104  0.033514866 4.6575538e-310 
    1852  0.041927775  0.030360783 4.6575538e-310 
    1854  0.045056971  0.027174868 4.6575538e-310 
    1856  0.048150944  0.024025925 4.6575538e-310 
    1858  0.051141392  0.020984834 4.6575538e-310 
    1860  0.053959211  0.018122719 4.6575538e-310 
    1862  0.056536398  0.015509003 4.6575538e-310 
    1864  0.058808044  0.013209414 4.6575538e-310 
    1866  0.060714336  0.011284022 4.6575538e-310 
    1868  0.062202496  0.009785362 4.6575538e-310 
    1870  0.063228565 0.0087567215 4.6575538e-310 
    1872  0.063758985 0.0082306507 4.6575538e-310 
    1874  0.063771875 0.0082277586 4.6575538e-310 
    1876  0.063257993 0.0087558387 4.6575538e-310 
    1878  0.062221307 0.0098093604 4.6575538e-310 
    1880   0.06067918  0.011369351 4.6575538e-310 
    1882  0.058662137  0.013403678 4.6575538e-310 
    1884   0.05621324   0.01586772 4.6575538e-310 
    1886   0.05338708  0.018705422 4.6575538e-310 
    1888  0.050248422  0.021850688 4.6575538e-310 
    1890  0.046870543  0.025229083 4.6575538e-310 
    1892  0.043333327  0.028759786 4.6575538e-310 
    1894  0.039721153  0.032357732 4.6575538e-310 
    1896  0.036120659  0.035935894 4.6575538e-310 
    1898  0.032618434  0.039407619 4.6575538e-310 
    1900  0.029298711  0.042688964 4.6575538e-310 
    1902  0.026241112  0.045700957 4.6575538e-310 
    1904  0.023518523  0.048371727 4.6575538e-310 
    1906  0.021195143  0.050638432 4.6575538e-310 
    1908  0.019324759  0.052448945 4.6575538e-310 
    1910  0.017949307  0.053763242 4.6575538e-310 
    1912  0.017097732  0.054554456 4.6575538e-310 
    1914   0.01678521  0.054809579 4.6575538e-310 
    1916  0.017012717  0.054529773 4.6575538e-310 
    1918  0.017766994   0.05373031 4.6575538e-310 
    1920  0.019020882  0.052440112 4.6575538e-310 
    1922  0.020734044  0.050700935 4.6575538e-310 
    1924  0.022854037  0.048566194 4.6575538e-310 
    1926  0.025317735  0.046099477 4.6575538e-310 
    1928  0.028053036  0.043372781 4.6575538e-310 
    1930  0.030980844  0.040464529 4.6575538e-310 
    1932  0.034017244  0.037457408 4.6575538e-310 
    1934  0.037075832  0.034436107 4.6575538e-310 
    1936   0.04007012  0.031485006 4.6575538e-310 
    1938  0.042915955  0.028685894 4.6575538e-310 
    1940  0.045533866  0.026115773 4.6575538e-310 
    1942   0.04785128   0.02384482 4.6575538e-310 
    1944  0.049804525  0.021934566 4.6575538e-310 
    1946  0.051340548   0.02043634 4.6575538e-310 
    1948    0.0524183  0.019390032 4.6575538e-310 
    1950   0.05300974  0.018823204 4.6575538e-310 
    1952  0.053100409   0.01875057 4.6575538e-310 
    1954  0.052689574   0.01917386 4.6575538e-310 
    1956  0.051789933  0.020082056 4.6575538e-310 
    1958  0.050426906  0.021451993 4.6575538e-310 
    1960   0.04863753  0.023249283 4.6575538e-310 
    1962  0.046469044  0.025429525 4.6575538e-310 
    1964  0.043977191  0.027939761 4.6575538e-310 
    1966   0.04122435  0.030720096 4.6575538e-310 
    1968  0.038277547  0.033705446 4.6575538e-310 
    1970  0.035206454  0.036827334 4.6575538e-310 
    1972  0.032081444  0.040015687 4.6575538e-310 
    1974  0.028971767  0.043200564 4.6575538e-310 
    1976  0.025943921  0.046313777 4.6575538e-310 
    1978  0.023060243  0.049290364 4.6575538e-310 
    1980  0.020377767  0.052069882 4.6575538e-310 
    1982  0.017947334  0.054597504 4.6575538e-310 
    1984  0.015812976  0.056824905 4.6575538e-310 
    1986  0.014011518  0.058710948 4.6575538e-310 
    1988    0.0125724  0.060222175 4.6575538e-310 
    1990  0.011517657   0.06133311 4.6575538e-310 
    1992  0.010862021  0.062026404 4.6575538e-310 
    1994  0.010613108  0.062292838 4.6575538e-310 
    1996  0.010771654  0.062131197 4.6575538e-310 
    1998  0.011331767   0.06154805 4.6575538e-310 
    2000  0.012281188  0.060557423 4.6575538e-310 
    2002  0.013601546  0.059180413 4.6575538e-310 
    2004  0.015268624   0.05744471 4.6575538e-310 
    2006  0.017252637  0.055384065 4.6575538e-310 
    2008  0.019518551  0.053037673 4.6575538e-310 
    2010  0.022026474  0.050449502 4.6575538e-310 
    2012  0.024732123  0.047667535 4.6575538e-310 
    2014  0.027587415  0.044742949 4.6575538e-310 
    2016   0.03054117  0.041729225 4.6575538e-310 
    2018  0.033539961  0.038681188 4.6575538e-310 
    2020  0.036529073  0.035654003 4.6575538e-310 
    2022  0.039453586  0.032702134 4.6575538e-310 
    2024  0.042259536  0.029878281 4.6575538e-310 
    2026  0.044895122  0.027232337 4.6575538e-310 
    2028  0.047311926  0.024810367 4.6575538e-310 
    2030  0.049466088  0.022653665 4.6575538e-310 
    2032  0.051319389   0.02079789 4.6575538e-310 
    2034  0.052840213  0.019272331 4.6575538e-310 
    2036  0.054004324  0.018099309 4.6575538e-310 
    2038  0.054795451  0.017293739 4.6575538e-310 
    2040  0.055205636  0.016862872 4.6575538e-310 
    2042  0.055235357  0.016806207 4.6575538e-310 
    2044  0.054893414  0.017115596 4.6575538e-310 
    2046  0.054196583  0.017775518 4.6575538e-310 
    2048  0.053169076  0.018763515 4.6575538e-310 
    2050  0.051841816  0.020050788 4.6575538e-310 
    2052  0.050251572  0.021602903 4.6575538e-310 
    2054  0.048439978  0.023380617 4.6575538e-310 
    2056  0.046452484  0.025340777 4.6575538e-310 
    2058  0.044337257  0.027437276 4.6575538e-310 
    2060  0.042144083  0.029622047 4.6575538e-310 
    2062  0.039923278  0.031846053 4.6575538e-310 
    2064  0.037724639  0.034060281 4.6575538e-310 
    2066  0.035596455    0.0362167 4.6575538e-310 
    2068  0.033584592  0.038269165 4.6575538e-310 
    2070  0.031731652  0.040174278 4.6575538e-310 
    2072  0.030076234  0.041892164 4.6575538e-310 
    2074  0.028652279  0.043387171 4.6575538e-310 
    2076  0.027488525  0.044628484 4.6575538e-310 
    2078   0.02660806  0.045590634 4.6575538e-310 
    2080  0.026027995  0.046253919 4.6575538e-310 
    2082  0.025759238  0.046604705 4.6575538e-310 
    2084  0.025806385  0.046635634 4.6575538e-310 
    2086  0.026167735  0.046345711 4.6575538e-310 
    2088  0.026835404  0.045740294 4.6575538e-310 
    2090  0.027795556  0.044830966 4.6575538e-310 
    2092  0.029028737  0.043635314 4.6575538e-310 
    2094  0.030510297  0.042176611 4.6575538e-310 
    2096  0.032210884  0.040483404 4.6575538e-310 
    2098  0.034097009  0.038589026 4.6575538e-310 
    2100  0.036131652  0.036531036 4.6575538e-310 
    2102  0.038274888  0.034350597 4.6575538e-310 
    2104   0.04048454  0.032091802 4.6575538e-310 
    2106  0.042716817  0.029800961 4.6575538e-310 
    2108  0.044926954  0.027525847 4.6575538e-310 
    2110  0.047069833  0.025314918 4.6575538e-310 
    2112  0.049100596  0.023216516 4.6575538e-310 
    2114  0.050975251  0.021278045 4.6575538e-310 
    2116  0.052651281  0.019545139 4.6575538e-310 
    2118  0.054088276  0.018060814 4.6575538e-310 
    2120  0.055248579  0.016864623 4.6575538e-310 
    2122  0.056097975  0.015991804 4.6575538e-310 
    2124  0.056606423  0.015472451 4.6575538e-310 
    2126   0.05674882  0.015330699 4.6575538e-310 
    2128   0.05650579  0.015583963 4.6575538e-310 
    2130  0.055864487  0.016242235 4.6575538e-310 
    2132  0.054819366  0.017307478 4.6575538e-310 
    2134  0.053372905  0.018773127 4.6575538e-310 
    2136   0.05153621  0.020623752 4.6575538e-310 
    2138  0.049329478  0.022834886 4.6575538e-310 
    2140  0.046782256  0.025373074 4.6575538e-310 
    2142  0.043933451  0.028196134 4.6575538e-310 
    2144  0.040831065  0.031253688 4.6575538e-310 
    2146  0.037531603  0.034487938 4.6575538e-310 
    2148  0.034099169  0.037834712 4.6575538e-310 
    2150  0.030604221  0.041224759 4.6575538e-310 
    2152  0.027122015  0.044585281 4.6575538e-310 
    2154   0.02373078  0.047841661 4.6575538e-310 
    2156   0.02050965   0.05091935 4.6575538e-310 
    2158  0.017536431  0.053745866 4.6575538e-310 
    2160  0.014885278  0.056252827 4.6575538e-310 
    2162  0.012624364  0.058377973 4.6575538e-310 
    2164  0.010813615  0.060067089 4.6575538e-310 
    2166 0.0095026307  0.061275772 4.6575538e-310 
    2168 0.0087288448  0.061970965 4.6575538e-310 
    2170 0.0085160305  0.062132198 4.6575538e-310 
    2172 0.0088732071  0.061752483 4.6575538e-310 
    2174 0.0097940091  0.060838823 4.6575538e-310 
    2176  0.011256557  0.059412299 4.6575538e-310 
    2178  0.013223845  0.057507715 4.6575538e-310 
    2180  0.015644658  0.055172826 4.6575538e-310 
    2182   0.01845497  0.052467129 4.6575538e-310 
    2184  0.021579808  0.049460293 4.6575538e-310 
    2186  0.024935499  0.046230234 4.6575538e-310 
    2188  0.028432217  0.042860937 4.6575538e-310 
    2190  0.031976745  0.039440067 4.6575538e-310 
    2192  0.035475331  0.036056467 4.6575538e-310 
    2194  0.038836545  0.032797623 4.6575538e-310 
    2196  0.041974001  0.029747176 4.6575538e-310 
    2198  0.044808878  0.026982581 4.6575538e-310 
    2200  0.047272114  0.024572962 4.6575538e-310 
    2202  0.049306232  0.022577251 4.6575538e-310 
    2204  0.050866719  0.021042665 4.6575538e-310 
    2206  0.051922952  0.020003538 4.6575538e-310 
    2208  0.052458643  0.019480566 4.6575538e-310 
    2210  0.052471834  0.019480446 4.6575538e-310 
    2212  0.051974459  0.019995928 4.6575538e-310 
    2214  0.050991535  0.021006247 4.6575538e-310 
    2216  0.049560022  0.022477915 4.6575538e-310 
    2218  0.047727435  0.024365831 4.6575538e-310 
    2220  0.045550256  0.026614669 4.6575538e-310 
    2222   0.04309222  0.029160493 4.6575538e-310 
    2224  0.040422522  0.031932544 4.6575538e-310 
    2226  0.037614008  0.034855158 4.6575538e-310 
    2228  0.034741375  0.037849741 4.6575538e-310 
    2230  0.031879429  0.040836786 4.6575538e-310 
    2232  0.029101416  0.043737845 4.6575538e-310 
    2234  0.026477452   0.04647745 4.6575538e-310 
    2236  0.024073062  0.048984909 4.6575538e-310 
    2238   0.02194785   0.05119597 4.6575538e-310 
    2240  0.020154302  0.053054294 4.6575538e-310 
    2242  0.018736745  0.054512723 4.6575538e-310 
    2244  0.017730469  0.055534313 4.6575538e-310 
    2246  0.017161029  0.056093106 4.6575538e-310 
    2248  0.017043741  0.056174638 4.6575538e-310 
    2250  0.017383392  0.055776147 4.6575538e-310 
    2252  0.018174163  0.054906504 4.6575538e-310 
    2254  0.019399802  0.053585851 4.6575538e-310 
    2256  0.021034018  0.051844952 4.6575538e-310 
    2258  0.023041127  0.049724293 4.6575538e-310 
    2260  0.025376926  0.047272927 4.6575538e-310 
    2262  0.027989787  0.044547115 4.6575538e-310 
    2264  0.030821942  0.041608794 4.6575538e-310 
    2266  0.033810948  0.038523909 4.6575538e-310 
    2268  0.036891267   0.03536067 4.6575538e-310 
    2270  0.039995943   0.03218777 4.6575538e-310 
    2272   0.04305831  0.029072633 4.6575538e-310 
    2274  0.046013694  0.026079725 4.6575538e-310 
    2276  0.048801037  0.023269006 4.6575538e-310 
    2278  0.051364415  0.020694538 4.6575538e-310 
    2280   0.05365437  0.018403312 4.6575538e-310 
    2282  0.055629044  0.016434324 4.6575538e-310 
    2284  0.057255047  0.014817909 4.6575538e-310 
    2286  0.058508061  0.013575366 4.6575538e-310 
    2288  0.059373135  0.012718863 4.6575538e-310 
    2290  0.059844685  0.012251621 4.6575538e-310 
    2292  0.059926203  0.012168355 4.6575538e-310 
    2294  0.059629687  0.012455941 4.6575538e-310 
    2296  0.058974836  0.013094285 4.6575538e-310 
    2298  0.057988038  0.014057333 4.6575538e-310 
    2300   0.05670121  0.015314182 4.6575538e-310 
    2302  0.055150544  0.016830253 4.6575538e-310 
    2304  0.053375214  0.018568455 4.6575538e-310 
    2306  0.051416102  0.020490304 4.6575538e-310 
    2308  0.049314593  0.022556962 4.6575538e-310 
    2310  0.047111499  0.024730146 4.6575538e-310 
    2312  0.044846134  0.026972882 4.6575538e-310 
    2314  0.042555575  0.029250101 4.6575538e-310 
    2316  0.040274133  0.031529048 4.6575538e-310 
    2318  0.038033019  0.033779521 4.6575538e-310 
    2320  0.035860218   0.03597395 4.6575538e-310 
    2322  0.033780528  0.038087328 4.6575538e-310 
    2324  0.031815762  0.040097035 4.6575538e-310 
    2326  0.029985049  0.041982578 4.6575538e-310 
    2328  0.028305219  0.043725284 4.6575538e-310 
    2330  0.026791204  0.045307997 4.6575538e-310 
    2332  0.025456438  0.046714794 4.6575538e-310 
    2334  0.024313189  0.047930777 4.6575538e-310 
    2336  0.023372816  0.048941947 4.6575538e-310 
    2338  0.022645896  0.049735208 4.6575538e-310 
    2340  0.022142219  0.050298491 4.6575538e-310 
    2342  0.021870638   0.05062102 4.6575538e-310 
    2344  0.021838759  0.050693706 4.6575538e-310 
    2346  0.022052496  0.050509669 4.6575538e-310 
    2348  0.022515498  0.050064846 4.6575538e-310 
    2350  0.023228484  0.049358674 4.6575538e-310 
    2352  0.024188509  0.048394798 4.6575538e-310 
    2354  0.025388223   0.04718176 4.6575538e-310 
    2356  0.026815151  0.045733631 4.6575538e-310 
    2358  0.028451066  0.044070527 4.6575538e-310 
    2360   0.03027149  0.042218961 4.6575538e-310 
    2362  0.032245399  0.040211999 4.6575538e-310 
    2364   0.03433516  0.038089166 4.6575538e-310 
    2366  0.036496747  0.035896078 4.6575538e-310 
    2368  0.038680278  0.033683788 4.6575538e-310 
    2370   0.04083087  0.031507835 4.6575538e-310 
    2372  0.042889823  0.029426997 4.6575538e-310 
    2374  0.044796119  0.027501789 4.6575538e-310 
    2376  0.046488194   0.02579273 4.6575538e-310 
    2378  0.047905917  0.024358438 4.6575538e-310 
    2380  0.048992736  0.023253616 4.6575538e-310 
    2382  0.049697873  0.022527006 4.6575538e-310 
    2384  0.049978493   0.02221939 4.6575538e-310 
    2386  0.049801746  0.022361726 4.6575538e-310 
    2388  0.049146579  0.022973503 4.6575538e-310 
    2390  0.048005225  0.024061386 4.6575538e-310 
    2392  0.046384299  0.025618242 4.6575538e-310 
    2394  0.044305412   0.02762258 4.6575538e-310 
    2396  0.041805281  0.030038477 4.6575538e-310 
    2398   0.03893529  0.032815983 4.6575538e-310 
    2400  0.035760504  0.035892055 4.6575538e-310 
    2402  0.032358164  0.039191956 4.6575538e-310 
    2404  0.028815683  0.042631139 4.6575538e-310 
    2406  0.025228233  0.046117524 4.6575538e-310 
    2408  0.021695963  0.049554119 4.6575538e-310 
    2410   0.01832098  0.052841908 4.6575538e-310 
    2412  0.015204162  0.055882891 4.6575538e-310 
    2414  0.012441924  0.058583193 4.6575538e-310 
    2416  0.010123054  0.060856126 4.6575538e-310 
    2418 0.0083257183  0.062625097 4.6575538e-310 
    2420  0.007114745  0.063826258 4.6575538e-310 
    2422  0.006539292  0.064410795 4.6575538e-310 
    2424 0.0066309767  0.064346781 4.6575538e-310 
    2426 0.0074025484  0.063620505 4.6575538e-310 
    2428 0.0088471554  0.062237232 4.6575538e-310 
    2430  0.010938248   0.06022135 4.6575538e-310 
    2432   0.01363013  0.057615896 4.6575538e-310 
    2434  0.016859153  0.054481453 4.6575538e-310 
    2436  0.020545528  0.050894473 4.6575538e-310 
    2438  0.024595683  0.046945043 4.6575538e-310 
    2440  0.028905122  0.042734201 4.6575538e-310 
    2442  0.033361654  0.038370861 4.6575538e-310 
    2444  0.037848903  0.033968469 4.6575538e-310 
    2446  0.042249975  0.029641501 4.6575538e-310 
    2448  0.046451131  0.025501927 4.6575538e-310 
    2450   0.05034535  0.021655755 4.6575538e-310 
    2452  0.053835647  0.018199789 4.6575538e-310 
    2454  0.056838019   0.01521871 4.6575538e-310 
    2456  0.059283921  0.012782572 4.6575538e-310 
    2458  0.061122177  0.010944812 4.6575538e-310 
    2460  0.062320273 0.0097408282 4.6575538e-310 
    2462  0.062864983 0.0091871742 4.6575538e-310 
    2464  0.062762334 0.0092813848 4.6575538e-310 
    2466  0.062036906  0.010002432 4.6575538e-310 
    2468  0.060730529  0.011311783 4.6575538e-310 
    2470  0.058900445  0.013155002 4.6575538e-310 
    2472  0.056616995  0.015463841 4.6575538e-310 
    2474  0.053960977  0.018158715 4.6575538e-310 
    2476  0.051020738  0.021151485 4.6575538e-310 
    2478  0.047889162  0.024348422 4.6575538e-310 
    2480  0.044660629  0.027653254 4.6575538e-310 
    2482  0.041428087  0.030970194 4.6575538e-310 
    2484  0.038280313  0.034206828 4.6575538e-310 
    2486  0.035299457  0.037276782 4.6575538e-310 
    2488  0.032558944  0.040102086 4.6575538e-310 
    2490  0.030121762  0.042615165 4.6575538e-310 
    2492  0.028039194  0.044760395 4.6575538e-310 
    2494  0.026349987  0.046495223 4.6575538e-310 
    2496  0.025079963  0.047790791 4.6575538e-310 
    2498  0.024242046  0.048632107 4.6575538e-310 
    2500  0.023836684  0.049017759 4.6575538e-310 
    2502  0.023852614  0.048959206 4.6575538e-310 
    2504  0.024267923  0.048479701 4.6575538e-310 
    2506  0.025051361  0.047612898 4.6575538e-310 
    2508  0.026163827  0.046401205 4.6575538e-310 
    2510  0.027560001  0.044893956 4.6575538e-310 
    2512  0.029190033  0.043145472 4.6575538e-310 
    2514  0.031001263  0.041213095 4.6575538e-310 
    2516  0.032939887  0.039155246 4.6575538e-310 
    2518  0.034952555  0.037029596 4.6575538e-310 
    2520   0.03698782  0.034891392 4.6575538e-310 
    2522  0.038997426  0.032792004 4.6575538e-310 
    2524  0.040937382  0.030777722 4.6575538e-310 
    2526  0.042768803  0.028888845 4.6575538e-310 
    2528  0.044458503  0.027159069 4.6575538e-310 
    2530  0.045979322  0.025615183 4.6575538e-310 
    2532  0.047310205  0.024277069 4.6575538e-310 
    2534  0.048436031  0.023157975 4.6575538e-310 
    2536  0.049347227  0.022265036 4.6575538e-310 
    2538  0.050039202  0.021599999 4.6575538e-310 
    2540  0.050511637  0.021160092 4.6575538e-310 
    2542   0.05076769  0.020939006 4.6575538e-310 
    2544   0.05081316  0.020927898 4.6575538e-310 
    2546  0.050655666  0.021116386 4.6575538e-310 
    2548  0.050303889  0.021493463 4.6575538e-310 
    2550   0.04976692  0.022048289 4.6575538e-310 
    2552  0.049053744  0.022770823 4.6575538e-310 
    2554  0.048172893  0.023652256 4.6575538e-310 
    2556   0.04713227  0.024685229 4.6575538e-310 
    2558  0.045939145  0.025863837 4.6575538e-310 
    2560  0.044600322  0.027183418 4.6575538e-310 
    2562  0.043122451  0.028640136 4.6575538e-310 
    2564  0.041512459  0.030230408 4.6575538e-310 
    2566  0.039778069  0.031950188 4.6575538e-310 
    2568  0.037928366  0.033794172 4.6575538e-310 
    2570  0.035974392  0.035754958 4.6575538e-310 
    2572  0.033929701  0.037822222 4.6575538e-310 
    2574  0.031810876  0.039981963 4.6575538e-310 
    2576  0.029637946  0.042215864 4.6575538e-310 
    2578   0.02743469  0.044500815 4.6575538e-310 
    2580  0.025228788  0.046808647 4.6575538e-310 
    2582  0.023051817  0.049106103 4.6575538e-310 
    2584  0.020939045  0.051355074 4.6575538e-310 
    2586  0.018929036  0.053513118 4.6575538e-310 
    2588  0.017063035  0.055534253 4.6575538e-310 
    2590  0.015384146  0.057370028 4.6575538e-310 
    2592  0.013936301  0.058970848 4.6575538e-310 
    2594  0.012763037  0.060287505 4.6575538e-310 
    2596  0.011906105  0.061272887 4.6575538e-310 
    2598   0.01140395  0.061883795 4.6575538e-310 
    2600  0.011290103  0.062082809 4.6575538e-310 
    2602  0.011591546  0.061840124 4.6575538e-310 
    2604  0.012327118  0.061135277 4.6575538e-310 
    2606  0.013506033  0.059958692 4.6575538e-310 
    2608  0.015126581  0.058312952 4.6575538e-310 
    2610  0.017175106  0.056213744 4.6575538e-310 
    2612  0.019625305  0.053690388 4.6575538e-310 
    2614  0.022437951  0.050785918 4.6575538e-310 
    2616   0.02556105  0.047556671 4.6575538e-310 
    2618    0.0289305  0.044071365 4.6575538e-310 
    2620   0.03247125  0.040409671 4.6575538e-310 
    2622  0.036098959   0.03666029 4.6575538e-310 
    2624  0.039722122  0.032918605 4.6575538e-310 
    2626  0.043244616  0.029283937 4.6575538e-310 
    2628  0.046568587  0.025856521 4.6575538e-310 
    2630  0.049597588   0.02273428 4.6575538e-310 
    2632  0.052239857  0.020009521 4.6575538e-310 
    2634  0.054411613  0.017765665 4.6575538e-310 
    2636  0.056040249  0.016074147 4.6575538e-310 
    2638  0.057067283  0.014991597 4.6575538e-310 
    2640  0.057450943  0.014557429 4.6575538e-310 
    2642  0.057168283  0.014791943 4.6575538e-310 
    2644    0.0562167  0.015695022 4.6575538e-310 
    2646  0.054614801  0.017245513 4.6575538e-310 
    2648  0.052402533  0.019401313 4.6575538e-310 
    2650  0.049640552  0.022100208 4.6575538e-310 
    2652  0.046408821   0.02526144 4.6575538e-310 
    2654  0.042804467  0.028787968 4.6575538e-310 
    2656  0.038938939  0.032569368 4.6575538e-310 
    2658  0.034934556  0.036485271 4.6575538e-310 
    2660  0.030920557  0.040409238 4.6575538e-310 
    2662  0.027028783  0.044212917 4.6575538e-310 
    2664  0.023389155  0.047770357 4.6575538e-310 
    2666   0.02012511  0.050962305 4.6575538e-310 
    2668  0.017349179  0.053680323 4.6575538e-310 
    2670  0.015158885  0.055830575 4.6575538e-310 
    2672  0.013633136  0.057337134 4.6575538e-310 
    2674   0.01282927  0.058144665 4.6575538e-310 
    2676  0.012780878  0.058220396 4.6575538e-310 
    2678  0.013496517  0.057555272 4.6575538e-310 
    2680  0.014959367  0.056164263 4.6575538e-310 
    2682  0.017127867  0.054085803 4.6575538e-310 
    2684  0.019937289  0.051380377 4.6575538e-310 
    2686  0.023302209  0.048128319 4.6575538e-310 
    2688  0.027119742  0.044426914 4.6575538e-310 
    2690   0.03127342  0.040386909 4.6575538e-310 
    2692  0.035637525  0.036128588 4.6575538e-310 
    2694    0.0400817  0.031777563 4.6575538e-310 
    2696  0.044475622  0.027460448 4.6575538e-310 
    2698   0.04869355  0.023300595 4.6575538e-310 
    2700  0.052618552  0.019414047 4.6575538e-310 
    2702   0.05614625  0.015905858 4.6575538e-310 
    2704  0.059187943  0.012866924 4.6575538e-310 
    2706  0.061672998  0.010371416 4.6575538e-310 
    2708  0.063550457 0.0084749011 4.6575538e-310 
    2710  0.064789827 0.0072131996 4.6575538e-310 
    2712  0.065381067 0.0066019823 4.6575538e-310 
    2714  0.065333823 0.0066371012 4.6575538e-310 
    2716   0.06467599 0.0072956027 4.6575538e-310 
    2718  0.063451702 0.0085373531 4.6575538e-310 
    2720  0.061718875  0.010307183 4.6575538e-310 
    2722  0.059546425  0.012537444 4.6575538e-310 
    2724  0.057011308  0.015150863 4.6575538e-310 
    2726   0.05419549  0.018063557 4.6575538e-310 
    2728  0.051182994  0.021188114 4.6575538e-310 
    2730  0.048057105  0.024436587 4.6575538e-310 
    2732  0.044897841   0.02772333 4.6575538e-310 
    2734  0.041779751  0.030967557 4.6575538e-310 
    2736  0.038770089  0.034095567 4.6575538e-310 
    2738  0.035927408  0.037042554 4.6575538e-310 
    2740  0.033300569  0.039753985 4.6575538e-310 
    2742  0.030928173  0.042186512 4.6575538e-310 
    2744  0.028838392  0.044308418 4.6575538e-310 
    2746  0.027049168   0.04609961 4.6575538e-310 
    2748  0.025568742  0.047551198 4.6575538e-310 
    2750  0.024396461  0.048664694 4.6575538e-310 
    2752   0.02352381  0.049450894 4.6575538e-310 
    2754  0.022935627  0.049928502 4.6575538e-310 
    2756  0.022611419  0.050122576 4.6575538e-310 
    2758   0.02252675  0.050062853 4.6575538e-310 
    2760  0.022654632  0.049782045 4.6575538e-310 
    2762  0.022966864  0.049314172 4.6575538e-310 
    2764   0.02343529  0.048692995 4.6575538e-310 
    2766  0.024032908   0.04795062 4.6575538e-310 
    2768   0.02473481  0.047116321 4.6575538e-310 
    2770   0.02551892  0.046215623 4.6575538e-310 
    2772  0.026366498  0.045269687 4.6575538e-310 
    2774  0.027262399  0.044294989 4.6575538e-310 
    2776  0.028195094  0.043303331 4.6575538e-310 
    2778  0.029156437  0.042302137 4.6575538e-310 
    2780  0.030141216  0.041295037 4.6575538e-310 
    2782  0.031146498  0.040282682 4.6575538e-310 
    2784  0.032170821  0.039263751 4.6575538e-310 
    2786  0.033213266  0.038236085 4.6575538e-310 
    2788  0.034272471  0.037197879 4.6575538e-310 
    2790  0.035345646  0.036148872 4.6575538e-310 
    2792  0.036427647  0.035091447 4.6575538e-310 
    2794  0.037510172  0.034031588 4.6575538e-310 
    2796  0.038581135  0.032979615 4.6575538e-310 
    2798  0.039624272  0.031950659 4.6575538e-310 
    2800  0.040619013  0.030964816 4.6575538e-310 
    2802  0.041540657  0.030046979 4.6575538e-310 
    2804  0.042360851  0.029226304 4.6575538e-310 
    2806  0.043048387  0.028535349 4.6575538e-310 
    2808  0.043570281  0.028008893 4.6575538e-310 
    2810  0.043893107  0.027682478 4.6575538e-310 
    2812  0.043984536   0.02759074 4.6575538e-310 
    2814  0.043815012  0.027765598 4.6575538e-310 
    2816  0.043359485  0.028234378 4.6575538e-310 
    2818  0.042599125  0.029017973 4.6575538e-310 
    2820  0.041522928  0.030129117 4.6575538e-310 
    2822  0.040129122  0.031570879 4.6575538e-310 
    2824  0.038426299   0.03333545 4.6575538e-310 
    2826  0.036434188  0.035403302 4.6575538e-310 
    2828  0.034184034  0.037742787 4.6575538e-310 
    2830  0.031718507    0.0403102 4.6575538e-310 
    2832  0.029091143  0.043050359 4.6575538e-310 
    2834   0.02636531  0.045897677 4.6575538e-310 
    2836  0.023612705  0.048777726 4.6575538e-310 
    2838  0.020911433  0.051609243 4.6575538e-310 
    2840  0.018343725  0.054306516 4.6575538e-310 
    2842  0.015993367  0.056782087 4.6575538e-310 
    2844  0.013942934  0.058949653 4.6575538e-310 
    2846  0.012270928  0.060727087 4.6575538e-310 
    2848  0.011048925  0.062039441 4.6575538e-310 
    2850  0.010338835  0.062821843 4.6575538e-310 
    2852  0.010190392  0.063022156 4.6575538e-310 
    2854  0.010638958  0.062603296 4.6575538e-310 
    2856  0.011703736   0.06154512 4.6575538e-310 
    2858   0.01338647  0.059845803 4.6575538e-310 
    2860  0.015670681  0.057522619 4.6575538e-310 
    2862  0.018521486  0.054612114 4.6575538e-310 
    2864  0.021886022  0.051169622 4.6575538e-310 
    2866  0.025694472  0.047268128 4.6575538e-310 
    2868  0.029861678  0.042996515 4.6575538e-310 
    2870  0.034289293  0.038457222 4.6575538e-310 
    2872  0.038868438  0.033763388 4.6575538e-310 
    2874  0.043482757  0.029035569 4.6575538e-310 
    2876  0.048011816  0.024398126 4.6575538e-310 
    2878  0.052334708  0.019975395 4.6575538e-310 
    2880  0.056333791  0.015887786 4.6575538e-310 
    2882  0.059898406  0.012247908 4.6575538e-310 
    2884  0.062928471 0.0091568864 4.6575538e-310 
    2886  0.065337826 0.0067009781 4.6575538e-310 
    2888   0.06705721 0.0049486228 4.6575538e-310 
    2890  0.068036756 0.0039480279 4.6575538e-310 
    2892  0.068247913 0.0037253891 4.6575538e-310 
    2894  0.067684706 0.0042838153 4.6575538e-310 
    2896  0.066364279 0.0056030103 4.6575538e-310 
    2898  0.064326671  0.007639735 4.6575538e-310 
    2900  0.061633824  0.010329045 4.6575538e-310 
    2902  0.058367826  0.013586277 4.6575538e-310 
    2904  0.054628438  0.017309715 4.6575538e-310 
    2906  0.050529973  0.021383862 4.6575538e-310 
    2908   0.04619763  0.025683201 4.6575538e-310 
    2910  0.041763397   0.03007631 4.6575538e-310 
    2912  0.037361672  0.034430201 4.6575538e-310 
    2914   0.03312477  0.038614704 4.6575538e-310 
    2916  0.029178462   0.04250676 4.6575538e-310 
    2918  0.025637744  0.045994444 4.6575538e-310 
    2920  0.022602978  0.048980585 4.6575538e-310 
    2922  0.020156576   0.05138583 4.6575538e-310 
    2924  0.018360349  0.053151063 4.6575538e-310 
    2926  0.017253633  0.054239065 4.6575538e-310 
    2928  0.016852262  0.054635377 4.6575538e-310 
    2930   0.01714844  0.054348329 4.6575538e-310 
    2932  0.018111486  0.053408247 4.6575538e-310 
    2934  0.019689442  0.051865883 4.6575538e-310 
    2936  0.021811453  0.049790134 4.6575538e-310 
    2938  0.024390801  0.047265158 4.6575538e-310 
    2940  0.027328483  0.044387006 4.6575538e-310 
    2942  0.030517143  0.041259919 4.6575538e-310 
    2944  0.033845206  0.037992442 4.6575538e-310 
    2946  0.037201022  0.034693507 4.6575538e-310 
    2948  0.040476857  0.031468651 4.6575538e-310 
    2950  0.043572562  0.028416511 4.6575538e-310 
    2952  0.046398773  0.025625722 4.6575538e-310 
    2954  0.048879541  0.023172327 4.6575538e-310 
    2956  0.050954287  0.021117793 4.6575538e-310 
    2958  0.052579045  0.019507667 4.6575538e-310 
    2960  0.053726967  0.018370913 4.6575538e-310 
    2962  0.054388128  0.017719915 4.6575538e-310 
    2964   0.05456865  0.017551121 4.6575538e-310 
    2966  0.054289259  0.017846245 4.6575538e-310 
    2968  0.053583351  0.018573981 4.6575538e-310 
    2970  0.052494701  0.019692089 4.6575538e-310 
    2972   0.05107493  0.021149776 4.6575538e-310 
    2974  0.049380866  0.022890233 4.6575538e-310 
    2976  0.047471928  0.024853222 4.6575538e-310 
    2978  0.045407638  0.026977589 4.6575538e-310 
    2980  0.043245371  0.029203613 4.6575538e-310 
    2982  0.041038412  0.031475088 4.6575538e-310 
    2984  0.038834404  0.033741074 4.6575538e-310 
    2986  0.036674197  0.035957249 4.6575538e-310 
    2988  0.034591138  0.038086853 4.6575538e-310 
[...]
   39264  0.029259633  0.042956561 4.6575538e-310 
   39266  0.029693827  0.042583792 4.6575538e-310 
   39268  0.030347263  0.041991158 4.6575538e-310 
   39270  0.031218132  0.041176305 4.6575538e-310 
   39272  0.032292833  0.040148935 4.6575538e-310 
   39274  0.033546222    0.0389309 4.6575538e-310 
   39276  0.034942395  0.037555721 4.6575538e-310 
   39278  0.036435941  0.036067548 4.6575538e-310 
   39280   0.03797362  0.034519612 4.6575538e-310 
   39282  0.039496374  0.032972243 4.6575538e-310 
   39284  0.040941597  0.031490501 4.6575538e-310 
   39286  0.042245561   0.03014156 4.6575538e-310 
   39288  0.043345933  0.028991902 4.6575538e-310 
   39290  0.044184277  0.028104466 4.6575538e-310 
   39292  0.044708472  0.027535826 4.6575538e-310 
   39294  0.044874969   0.02733354 4.6575538e-310 
   39296  0.044650821  0.027533752 4.6575538e-310 
   39298  0.044015418  0.028159142 4.6575538e-310 
   39300  0.042961877  0.029217325 4.6575538e-310 
   39302   0.04149803  0.030699762 4.6575538e-310 
   39304   0.03964697  0.032581237 4.6575538e-310 
   39306  0.037447118  0.034819953 4.6575538e-310 
   39308   0.03495176  0.037358263 4.6575538e-310 
   39310  0.032228065  0.040124025 4.6575538e-310 
   39312  0.029355542  0.043032589 4.6575538e-310 
   39314  0.026423961  0.045989337 4.6575538e-310 
   39316  0.023530763  0.048892729 4.6575538e-310 
   39318  0.020777997  0.051637757 4.6575538e-310 
   39320  0.018268869  0.054119698 4.6575538e-310 
   39322  0.016104006  0.056238023 4.6575538e-310 
   39324  0.014377554  0.057900333 4.6575538e-310 
   39326  0.013173261  0.059026143 4.6575538e-310 
   39328  0.012560727  0.059550382 4.6575538e-310 
   39330  0.012591987  0.059426425 4.6575538e-310 
   39332  0.013298611  0.058628524 4.6575538e-310 
   39334  0.014689497  0.057153515 4.6575538e-310 
   39336  0.016749502  0.055021689 4.6575538e-310 
   39338  0.019439026  0.052276761 4.6575538e-310 
   39340  0.022694628  0.048984914 4.6575538e-310 
   39342  0.026430686  0.045232913 4.6575538e-310 
   39344  0.030542084  0.041125364 4.6575538e-310 
   39346  0.034907819  0.036781186 4.6575538e-310 
   39348  0.039395393  0.032329458 4.6575538e-310 
   39350  0.043865798  0.027904784 4.6575538e-310 
   39352  0.048178865  0.023642387 4.6575538e-310 
   39354  0.052198726  0.019673129 4.6575538e-310 
   39356  0.055799126  0.016118668 4.6575538e-310 
   39358  0.058868335  0.013086971 4.6575538e-310 
   39360  0.061313427  0.010668367 4.6575538e-310 
   39362  0.063063726  0.008932302 4.6575538e-310 
   39364  0.064073286 0.0079249417 4.6575538e-310 
   39366  0.064322285 0.0076676941 4.6575538e-310 
   39368  0.063817326 0.0081567182 4.6575538e-310 
   39370  0.062590635 0.0093634097 4.6575538e-310 
   39372  0.060698263  0.011235828 4.6575538e-310 
   39374  0.058217377  0.013700981 4.6575538e-310 
   39376  0.055242835  0.016667854 4.6575538e-310 
   39378   0.05188319  0.020031037 4.6575538e-310 
   39380  0.048256343  0.023674794 4.6575538e-310 
   39382  0.044485036  0.027477384 4.6575538e-310 
   39384  0.040692369  0.031315484 4.6575538e-310 
   39386  0.036997513  0.035068517 4.6575538e-310 
   39388  0.033511776  0.038622733 4.6575538e-310 
   39390  0.030335134  0.041874917 4.6575538e-310 
   39392  0.027553331  0.044735572 4.6575538e-310 
   39394  0.025235593   0.04713151 4.6575538e-310 
   39396  0.023433025  0.049007769 4.6575538e-310 
   39398  0.022177674  0.050328811 4.6575538e-310 
   39400  0.021482272  0.051078996 4.6575538e-310 
   39402  0.021340622  0.051262331 4.6575538e-310 
   39404  0.021728603  0.050901535 4.6575538e-310 
   39406  0.022605717   0.05003648 4.6575538e-310 
   39408  0.023917142  0.048722069 4.6575538e-310 
   39410  0.025596193  0.047025663 4.6575538e-310 
   39412  0.027567119  0.045024145 4.6575538e-310 
   39414  0.029748136  0.042800746 4.6575538e-310 
   39416  0.032054586  0.040441764 4.6575538e-310 
   39418  0.034402124  0.038033281 4.6575538e-310 
   39420  0.036709796  0.035658026 4.6575538e-310 
   39422  0.038902908  0.033392484 4.6575538e-310 
   39424  0.040915558  0.031304373 4.6575538e-310 
   39426  0.042692742  0.029450574 4.6575538e-310 
   39428  0.044191923  0.027875587 4.6575538e-310 
   39430  0.045384023  0.026610575 4.6575538e-310 
   39432  0.046253772   0.02567301 4.6575538e-310 
   39434   0.04679943  0.025066917 4.6575538e-310 
   39436  0.047031891  0.024783705 4.6575538e-310 
   39438  0.046973224   0.02480351 4.6575538e-310 
   39440  0.046654755  0.025096979 4.6575538e-310 
   39442  0.046114786  0.025627397 4.6575538e-310 
   39444  0.045396088  0.026353038 4.6575538e-310 
   39446  0.044543307  0.027229624 4.6575538e-310 
   39448  0.043600436  0.028212756 4.6575538e-310 
   39450  0.042608475  0.029260207 4.6575538e-310 
   39452  0.041603407  0.030333957 4.6575538e-310 
   39454  0.040614592  0.031401877 4.6575538e-310 
   39456  0.039663643  0.032438988 4.6575538e-310 
   39458  0.038763839  0.033428244 4.6575538e-310 
   39460  0.037920064  0.034360814 4.6575538e-310 
   39462  0.037129277  0.035235865 4.6575538e-310 
   39464  0.036381448  0.036059869 4.6575538e-310 
   39466  0.035660888  0.036845498 4.6575538e-310 
   39468  0.034947903   0.03761016 4.6575538e-310 
   39470  0.034220639  0.038374288 4.6575538e-310 
   39472  0.033457034  0.039159452 4.6575538e-310 
   39474  0.032636761  0.039986427 4.6575538e-310 
   39476  0.031743043  0.040873308 4.6575538e-310 
   39478  0.030764273  0.041833774 4.6575538e-310 
   39480  0.029695324  0.042875595 4.6575538e-310 
   39482  0.028538514   0.04399947 4.6575538e-310 
   39484  0.027304164  0.045198232 4.6575538e-310 
   39486  0.026010724  0.046456503 4.6575538e-310 
   39488  0.024684471  0.047750771 4.6575538e-310 
   39490  0.023358785  0.049049938 4.6575538e-310 
   39492  0.022073033   0.05031628 4.6575538e-310 
   39494  0.020871125  0.051506806 4.6575538e-310 
   39496  0.019799786  0.052574932 4.6575538e-310 
   39498  0.018906633   0.05347243 4.6575538e-310 
   39500   0.01823813  0.054151531 4.6575538e-310 
   39502  0.017837508  0.054567127 4.6575538e-310 
   39504  0.017742738  0.054678944 4.6575538e-310 
   39506  0.017984643  0.054453619 4.6575538e-310 
   39508   0.01858522  0.053866575 4.6575538e-310 
   39510  0.019556246  0.052903612 4.6575538e-310 
   39512  0.020898231  0.051562147 4.6575538e-310 
   39514  0.022599751  0.049852049 4.6575538e-310 
   39516  0.024637205  0.047796009 4.6575538e-310 
   39518  0.026975007  0.045429445 4.6575538e-310 
   39520  0.029566203  0.042799907 4.6575538e-310 
   39522  0.032353526  0.039966014 4.6575538e-310 
   39524  0.035270824   0.03699594 4.6575538e-310 
   39526  0.038244857  0.033965489 4.6575538e-310 
   39528  0.041197382  0.030955832 4.6575538e-310 
   39530  0.044047478  0.028050964 4.6575538e-310 
   39532  0.046714049  0.025334966 4.6575538e-310 
   39534  0.049118411  0.022889175 4.6575538e-310 
   39536  0.051186909  0.020789335 4.6575538e-310 
   39538  0.052853467  0.019102853 4.6575538e-310 
   39540  0.054061998  0.017886241 4.6575538e-310 
   39542  0.054768595   0.01718285 4.6575538e-310 
   39544  0.054943422  0.017020976 4.6575538e-310 
   39546  0.054572233  0.017412428 4.6575538e-310 
   39548  0.053657452  0.018351617 4.6575538e-310 
   39550  0.052218741  0.019815224 4.6575538e-310 
   39552   0.05029303  0.021762477 4.6575538e-310 
   39554  0.047933935  0.024136055 4.6575538e-310 
   39556  0.045210588  0.026863605 4.6575538e-310 
   39558  0.042205835  0.029859847 4.6575538e-310 
   39560  0.039013865  0.033029203 4.6575538e-310 
   39562  0.035737305  0.036268875 4.6575538e-310 
   39564  0.032483864   0.03947227 4.6575538e-310 
   39566  0.029362637  0.042532642 4.6575538e-310 
   39568  0.026480209  0.045346834 4.6575538e-310 
   39570  0.023936714  0.047818954 4.6575538e-310 
   39572  0.021822011  0.049863844 4.6575538e-310 
   39574   0.02021217   0.05141021 4.6575538e-310 
   39576  0.019166419   0.05240325 4.6575538e-310 
   39578  0.018724727  0.052806696 4.6575538e-310 
   39580   0.01890614  0.052604148 4.6575538e-310 
   39582  0.019707963  0.051799665 4.6575538e-310 
   39584  0.021105849  0.050417564 4.6575538e-310 
   39586  0.023054793  0.048501443 4.6575538e-310 
   39588  0.025490982  0.046112468 4.6575538e-310 
   39590  0.028334421  0.043327013 4.6575538e-310 
   39592   0.03149219  0.040233728 4.6575538e-310 
   39594  0.034862186  0.036930212 4.6575538e-310 
   39596  0.038337143  0.033519394 4.6575538e-310 
   39598  0.041808746  0.030105807 4.6575538e-310 
   39600  0.045171644  0.026791908 4.6575538e-310 
   39602  0.048327174  0.023674592 4.6575538e-310 
   39604  0.051186648  0.020842029 4.6575538e-310 
   39606  0.053674061  0.018370967 4.6575538e-310 
   39608  0.055728158  0.016324557 4.6575538e-310 
   39610   0.05730378  0.014750788 4.6575538e-310 
   39612  0.058372504  0.013681552 4.6575538e-310 
   39614  0.058922595  0.013132345 4.6575538e-310 
   39616  0.058958325  0.013102576 4.6575538e-310 
   39618  0.058498758  0.013576433 4.6575538e-310 
   39620  0.057576082   0.01452424 4.6575538e-310 
   39622  0.056233619  0.015904215 4.6575538e-310 
   39624   0.05452362  0.017664535 4.6575538e-310 
   39626   0.05250495  0.019745605 4.6575538e-310 
   39628  0.050240772  0.022082438 4.6575538e-310 
   39630  0.047796309  0.024607044 4.6575538e-310 
   39632  0.045236764  0.027250738 4.6575538e-310 
   39634  0.042625441  0.029946301 4.6575538e-310 
   39636  0.040022117  0.032629919 4.6575538e-310 
   39638  0.037481673  0.035242855 4.6575538e-310 
   39640  0.035053011  0.037732819 4.6575538e-310 
   39642  0.032778243  0.040055002 4.6575538e-310 
   39644   0.03069215  0.042172782 4.6575538e-310 
   39646  0.028821901  0.044058086 4.6575538e-310 
   39648  0.027187017  0.045691436 4.6575538e-310 
   39650   0.02579955  0.047061686 4.6575538e-310 
   39652  0.024664477  0.048165497 4.6575538e-310 
   39654  0.023780274  0.049006571 4.6575538e-310 
   39656   0.02313965  0.049594701 4.6575538e-310 
   39658  0.022730422   0.04994468 4.6575538e-310 
   39660  0.022536488  0.050075112 4.6575538e-310 
   39662  0.022538878  0.050007202 4.6575538e-310 
   39664   0.02271683  0.049763545 4.6575538e-310 
   39666  0.023048856  0.049367001 4.6575538e-310 
   39668  0.023513752  0.048839673 4.6575538e-310 
   39670  0.024091495  0.048202063 4.6575538e-310 
   39672  0.024763988  0.047472417 4.6575538e-310 
   39674  0.025515615  0.046666293 4.6575538e-310 
   39676   0.02633356  0.045796382 4.6575538e-310 
   39678  0.027207883  0.044872561 4.6575538e-310 
   39680  0.028131336  0.043902186 4.6575538e-310 
   39682  0.029098934  0.042890602 4.6575538e-310 
   39684  0.030107302  0.041841814 4.6575538e-310 
   39686  0.031153853  0.040759299 4.6575538e-310 
   39688  0.032235836  0.039646881 4.6575538e-310 
   39690  0.033349349  0.038509618 4.6575538e-310 
   39692   0.03448837  0.037354631 4.6575538e-310 
   39694  0.035643908  0.036191816 4.6575538e-310 
   39696  0.036803329  0.035034368 4.6575538e-310 
   39698  0.037949942  0.033899089 4.6575538e-310 
   39700  0.039062884  0.032806421 4.6575538e-310 
   39702  0.040117337  0.031780195 4.6575538e-310 
   39704  0.041085099  0.030847092 4.6575538e-310 
   39706  0.041935473  0.030035818 4.6575538e-310 
   39708  0.042636463  0.029376041 4.6575538e-310 
   39710  0.043156198  0.028897118 4.6575538e-310 
   39712  0.043464522  0.028626683 4.6575538e-310 
   39714  0.043534655  0.028589172 4.6575538e-310 
   39716  0.043344833   0.02880435 4.6575538e-310 
   39718  0.042879835  0.029285918 4.6575538e-310 
   39720  0.042132302  0.030040298 4.6575538e-310 
   39722   0.04110378  0.031065638 4.6575538e-310 
   39724  0.039805409   0.03235112 4.6575538e-310 
   39726  0.038258229  0.033876605 4.6575538e-310 
   39728  0.036493076  0.035612648 4.6575538e-310 
   39730  0.034550051  0.037520899 4.6575538e-310 
   39732  0.032477601  0.039554893 4.6575538e-310 
   39734  0.030331235  0.041661188 4.6575538e-310 
   39736  0.028171915   0.04378084 4.6575538e-310 
   39738  0.026064205  0.045851141 4.6575538e-310 
   39740  0.024074229  0.047807575 4.6575538e-310 
   39742  0.022267523  0.049585908 4.6575538e-310 
   39744  0.020706849   0.05112435 4.6575538e-310 
   39746  0.019450056  0.052365688 4.6575538e-310 
   39748  0.018548054  0.053259333 4.6575538e-310 
   39750  0.018042974  0.053763193 4.6575538e-310 
   39752  0.017966575  0.053845299 4.6575538e-310 
   39754  0.018338952  0.053485136 4.6575538e-310 
   39756  0.019167602  0.052674609 4.6575538e-310 
   39758  0.020446866  0.051418626 4.6575538e-310 
   39760  0.022157793  0.049735249 4.6575538e-310 
   39762  0.024268437  0.047655417 4.6575538e-310 
   39764  0.026734573  0.045222248 4.6575538e-310 
   39766  0.029500832  0.042489914 4.6575538e-310 
   39768  0.032502233  0.039522155 4.6575538e-310 
   39770  0.035666041   0.03639045 4.6575538e-310 
   39772  0.038913923  0.033171927 4.6575538e-310 
   39774  0.042164315  0.029947059 4.6575538e-310 
   39776  0.045334912  0.026797249 4.6575538e-310 
   39778  0.048345216   0.02380236 4.6575538e-310 
   39780  0.051119021  0.021038304 4.6575538e-310 
   39782   0.05358676  0.018574741 4.6575538e-310 
   39784  0.055687627  0.016473002 4.6575538e-310 
   39786  0.057371382  0.014784281 4.6575538e-310 
   39788  0.058599793  0.013548169 4.6575538e-310 
   39790  0.059347648  0.012791582 4.6575538e-310 
   39792  0.059603322  0.012528102 4.6575538e-310 
   39794  0.059368866  0.012757764 4.6575538e-310 
   39796  0.058659658  0.013467282 4.6575538e-310 
   39798  0.057503608  0.014630689 4.6575538e-310 
   39800  0.055939984  0.016210377 4.6575538e-310 
   39802  0.054017912  0.018158475 4.6575538e-310 
   39804    0.0517946  0.020418514 4.6575538e-310 
   39806  0.049333392  0.022927312 4.6575538e-310 
   39808    0.0467017  0.025617002 4.6575538e-310 
   39810  0.043968908  0.028417135 4.6575538e-310 
   39812  0.041204318  0.031256778 4.6575538e-310 
   39814  0.038475205  0.034066528 4.6575538e-310 
   39816  0.035845042  0.036780396 4.6575538e-310 
   39818  0.033371942  0.039337487 4.6575538e-310 
   39820  0.031107358  0.041683435 4.6575538e-310 
   39822  0.029095063  0.043771563 4.6575538e-310 
   39824  0.027370428  0.045563741 4.6575538e-310 
   39826  0.025959999  0.047030936 4.6575538e-310 
   39828   0.02488136   0.04815346 4.6575538e-310 
   39830   0.02414327  0.048920921 4.6575538e-310 
   39832  0.023746043  0.049331917 4.6575538e-310 
   39834  0.023682133  0.049393492 4.6575538e-310 
   39836   0.02393689  0.049120402 4.6575538e-310 
   39838  0.024489443  0.048534234 4.6575538e-310 
   39840  0.025313653  0.047662414 4.6575538e-310 
   39842  0.026379113  0.046537165 4.6575538e-310 
   39844  0.027652137  0.045194439 4.6575538e-310 
   39846  0.029096708  0.043672877 4.6575538e-310 
   39848  0.030675351  0.042012814 4.6575538e-310 
   39850  0.032349925  0.040255369 4.6575538e-310 
   39852  0.034082294  0.038441621 4.6575538e-310 
   39854  0.035834898  0.036611899 4.6575538e-310 
   39856  0.037571217   0.03480517 4.6575538e-310 
   39858  0.039256139  0.033058532 4.6575538e-310 
   39860  0.040856258  0.031406804 4.6575538e-310 
   39862  0.042340118  0.029882186 4.6575538e-310 
   39864  0.043678433  0.028513987 4.6575538e-310 
   39866  0.044844303  0.027328397 4.6575538e-310 
   39868  0.045813453  0.026348287 4.6575538e-310 
   39870  0.046564497  0.025593026 4.6575538e-310 
   39872  0.047079257  0.025078305 4.6575538e-310 
   39874  0.047343113   0.02481596 4.6575538e-310 
   39876  0.047345381  0.024813804 4.6575538e-310 
   39878  0.047079716  0.025075462 4.6575538e-310 
   39880  0.046544477  0.025600219 4.6575538e-310 
   39882  0.045743065  0.026382911 4.6575538e-310 
   39884  0.044684158  0.027413849 4.6575538e-310 
   39886  0.043381846  0.028678809 4.6575538e-310 
   39888  0.041855606  0.030159099 4.6575538e-310 
   39890  0.040130123  0.031831708 4.6575538e-310 
   39892  0.038234927  0.033669554 4.6575538e-310 
   39894  0.036203861  0.035641826 4.6575538e-310 
   39896  0.034074394  0.037714422 4.6575538e-310 
   39898  0.031886799  0.039850476 4.6575538e-310 
   39900  0.029683247  0.042010965 4.6575538e-310 
   39902  0.027506843  0.044155379 4.6575538e-310 
   39904  0.025400667  0.046242434 4.6575538e-310 
   39906  0.023406848  0.048230832 4.6575538e-310 
   39908  0.021565711  0.050080027 4.6575538e-310 
   39910  0.019915021  0.051750997 4.6575538e-310 
   39912  0.018489334  0.053207023 4.6575538e-310 
   39914  0.017319451  0.054414437 4.6575538e-310 
   39916   0.01643196  0.055343362 4.6575538e-310 
   39918  0.015848852  0.055968419 4.6575538e-310 
   39920  0.015587171  0.056269399 4.6575538e-310 
   39922  0.015658681  0.056231889 4.6575538e-310 
   39924  0.016069534  0.055847842 4.6575538e-310 
   39926  0.016819923   0.05511607 4.6575538e-310 
   39928  0.017903739  0.054042633 4.6575538e-310 
   39930  0.019308243  0.052641109 4.6575538e-310 
   39932  0.021013805  0.050932707 4.6575538e-310 
   39934  0.022993742    0.0489462 4.6575538e-310 
   39936  0.025214328  0.046717642 4.6575538e-310 
   39938  0.027635013  0.044289868 4.6575538e-310 
   39940  0.030208912  0.041711736 4.6575538e-310 
   39942  0.032883579   0.03903714 4.6575538e-310 
   39944  0.035602093  0.036323782 4.6575538e-310 
   39946  0.038304435  0.033631744 4.6575538e-310 
   39948  0.040929122  0.031021895 4.6575538e-310 
   39950  0.043415033  0.028554182 4.6575538e-310 
   39952   0.04570335   0.02628587 4.6575538e-310 
   39954  0.047739524   0.02426981 4.6575538e-310 
   39956  0.049475153  0.022552786 4.6575538e-310 
   39958  0.050869687  0.021174036 4.6575538e-310 
   39960  0.051891861  0.020163988 4.6575538e-310 
   39962   0.05252078  0.019543288 4.6575538e-310 
   39964  0.052746616  0.019322146 4.6575538e-310 
   39966  0.052570866  0.019500028 4.6575538e-310 
   39968  0.052006192  0.020065711 4.6575538e-310 
   39970   0.05107585  0.020997693 4.6575538e-310 
   39972  0.049812748  0.022264926 4.6575538e-310 
   39974  0.048258209  0.023827849 4.6575538e-310 
   39976  0.046460488  0.025639664 4.6575538e-310 
   39978  0.044473141  0.027647804 4.6575538e-310 
   39980  0.042353306  0.029795537 4.6575538e-310 
   39982  0.040159976   0.03202364 4.6575538e-310 
   39984  0.037952327  0.034272084 4.6575538e-310 
   39986  0.035788142   0.03648168 4.6575538e-310 
   39988  0.033722385  0.038595632 4.6575538e-310 
   39990  0.031805944  0.040560956 4.6575538e-310 
   39992  0.030084548  0.042329735 4.6575538e-310 
   39994  0.028597883  0.043860181 4.6575538e-310 
   39996    0.0273789  0.045117485 4.6575538e-310 
   39998  0.026453297  0.046074449 4.6575538e-310 
   40000  0.025839198  0.046711897 4.6575538e-310 
Loop time of 21.395 on 1 procs for 40000 steps with 8 atoms

Performance: 80.766 ns/day, 0.297 hours/ns, 1869.592 timesteps/s
86.7% CPU use with 1 MPI tasks x no OpenMP threads

MPI task timing breakdown:
Section |  min time  |  avg time  |  max time  |%varavg| %total
---------------------------------------------------------------
Pair    | 8.8197     | 8.8197     | 8.8197     |   0.0 | 41.22
Neigh   | 0          | 0          | 0          |   0.0 |  0.00
Comm    | 0.1083     | 0.1083     | 0.1083     |   0.0 |  0.51
Output  | 12.257     | 12.257     | 12.257     |   0.0 | 57.29
Modify  | 0.11477    | 0.11477    | 0.11477    |   0.0 |  0.54
Other   |            | 0.09546    |            |       |  0.45

Nlocal:        8.00000 ave           8 max           8 min
Histogram: 1 0 0 0 0 0 0 0 0 0
Nghost:        10.0000 ave          10 max          10 min
Histogram: 1 0 0 0 0 0 0 0 0 0
Neighs:         0.00000 ave           0 max           0 min
Histogram: 1 0 0 0 0 0 0 0 0 0

Total # of neighbors = 0
Ave neighs/atom = 0.0000000
Neighbor list builds = 0
Dangerous builds = 0
#run 2000
unfix 1
#undump 1

#write_data Si.data
Total wall time: 0:00:21
