LAMMPS (5 Jun 2019)
    #log none  

    boundary p p p  
    units metal  
    atom_style atomic
    atom_modify map array # This is required 
    atom_modify sort 1 10.0
 
    compute P all pe 

    read_data DATA
  orthogonal box = (0 0 0) to (5.43 5.43 5.43)
  1 by 1 by 1 MPI processor grid
  reading atoms ...
  8 atoms
  read_data CPU = 0.000453307 secs

    fix		1 all nve

    neighbor 0.0 bin
    neigh_modify once yes


# Tersoff 1988
pair_style tersoff
pair_coeff * * Si.tersoff Si
Reading potential file Si.tersoff with DATE: 2007-10-25

set atom 1 x 0.010000
  1 settings made for x
set atom 1 y 0.000000
  1 settings made for y
set atom 1 z 0.000000
  1 settings made for z
set atom 2 x 2.715000
  1 settings made for x
set atom 2 y 2.715000
  1 settings made for y
set atom 2 z 0.000000
  1 settings made for z
set atom 3 x 2.715000
  1 settings made for x
set atom 3 y 0.000000
  1 settings made for y
set atom 3 z 2.715000
  1 settings made for z
set atom 4 x 0.000000
  1 settings made for x
set atom 4 y 2.715000
  1 settings made for y
set atom 4 z 2.715000
  1 settings made for z
set atom 5 x 1.357500
  1 settings made for x
set atom 5 y 1.357500
  1 settings made for y
set atom 5 z 1.357500
  1 settings made for z
set atom 6 x 4.072500
  1 settings made for x
set atom 6 y 4.072500
  1 settings made for y
set atom 6 z 1.357500
  1 settings made for z
set atom 7 x 4.072500
  1 settings made for x
set atom 7 y 1.357500
  1 settings made for y
set atom 7 z 4.072500
  1 settings made for z
set atom 8 x 1.357500
  1 settings made for x
set atom 8 y 4.072500
  1 settings made for y
set atom 8 z 4.072500
  1 settings made for z
run 0
Neighbor list info ...
  update every 1 steps, delay 10 steps, check yes
  max neighbors/atom: 2000, page size: 100000
  master list distance cutoff = 3.2
  ghost atom cutoff = 3.2
  binsize = 1.6, bins = 4 4 4
  1 neighbor lists, perpetual/occasional/extra = 1 0 0
  (1) pair tersoff, perpetual
      attributes: full, newton on
      pair build: full/bin/atomonly
      stencil: full/bin/3d
      bin: standard
Per MPI rank memory allocation (min/avg/max) = 2.688 | 2.688 | 2.688 Mbytes
Step Temp E_pair E_mol TotEng Press 
       0            0   -37.042515            0   -37.042515     681.5455 
Loop time of 3.94788e-06 on 1 procs for 0 steps with 8 atoms

0.0% CPU use with 1 MPI tasks x no OpenMP threads

MPI task timing breakdown:
Section |  min time  |  avg time  |  max time  |%varavg| %total
---------------------------------------------------------------
Pair    | 0          | 0          | 0          |   0.0 |  0.00
Neigh   | 0          | 0          | 0          |   0.0 |  0.00
Comm    | 0          | 0          | 0          |   0.0 |  0.00
Output  | 0          | 0          | 0          |   0.0 |  0.00
Modify  | 0          | 0          | 0          |   0.0 |  0.00
Other   |            | 3.948e-06  |            |       |100.00

Nlocal:    8 ave 8 max 8 min
Histogram: 1 0 0 0 0 0 0 0 0 0
Nghost:    86 ave 86 max 86 min
Histogram: 1 0 0 0 0 0 0 0 0 0
Neighs:    0 ave 0 max 0 min
Histogram: 1 0 0 0 0 0 0 0 0 0
FullNghs:  32 ave 32 max 32 min
Histogram: 1 0 0 0 0 0 0 0 0 0

Total # of neighbors = 32
Ave neighs/atom = 4
Neighbor list builds = 0
Dangerous builds = 0
set atom 1 x 0.000000
  1 settings made for x
set atom 1 y -0.010000
  1 settings made for y
set atom 1 z 0.000000
  1 settings made for z
set atom 2 x 2.715000
  1 settings made for x
set atom 2 y 2.715000
  1 settings made for y
set atom 2 z 0.000000
  1 settings made for z
set atom 3 x 2.715000
  1 settings made for x
set atom 3 y 0.000000
  1 settings made for y
set atom 3 z 2.715000
  1 settings made for z
set atom 4 x 0.000000
  1 settings made for x
set atom 4 y 2.715000
  1 settings made for y
set atom 4 z 2.715000
  1 settings made for z
set atom 5 x 1.357500
  1 settings made for x
set atom 5 y 1.357500
  1 settings made for y
set atom 5 z 1.357500
  1 settings made for z
set atom 6 x 4.072500
  1 settings made for x
set atom 6 y 4.072500
  1 settings made for y
set atom 6 z 1.357500
  1 settings made for z
set atom 7 x 4.072500
  1 settings made for x
set atom 7 y 1.357500
  1 settings made for y
set atom 7 z 4.072500
  1 settings made for z
set atom 8 x 1.357500
  1 settings made for x
set atom 8 y 4.072500
  1 settings made for y
set atom 8 z 4.072500
  1 settings made for z
run 0
Per MPI rank memory allocation (min/avg/max) = 2.688 | 2.688 | 2.688 Mbytes
Step Temp E_pair E_mol TotEng Press 
       0            0   -37.042515            0   -37.042515     681.5455 
Loop time of 3.20841e-06 on 1 procs for 0 steps with 8 atoms

0.0% CPU use with 1 MPI tasks x no OpenMP threads

MPI task timing breakdown:
Section |  min time  |  avg time  |  max time  |%varavg| %total
---------------------------------------------------------------
Pair    | 0          | 0          | 0          |   0.0 |  0.00
Neigh   | 0          | 0          | 0          |   0.0 |  0.00
Comm    | 0          | 0          | 0          |   0.0 |  0.00
Output  | 0          | 0          | 0          |   0.0 |  0.00
Modify  | 0          | 0          | 0          |   0.0 |  0.00
Other   |            | 3.208e-06  |            |       |100.00

Nlocal:    8 ave 8 max 8 min
Histogram: 1 0 0 0 0 0 0 0 0 0
Nghost:    86 ave 86 max 86 min
Histogram: 1 0 0 0 0 0 0 0 0 0
Neighs:    0 ave 0 max 0 min
Histogram: 1 0 0 0 0 0 0 0 0 0
FullNghs:  32 ave 32 max 32 min
Histogram: 1 0 0 0 0 0 0 0 0 0

Total # of neighbors = 32
Ave neighs/atom = 4
Neighbor list builds = 0
Dangerous builds = 0sset atom 1 x 0.000000
  1 settings made for x
set atom 1 y 0.000000
  1 settings made for y
set atom 1 z 0.010000
  1 settings made for z
set atom 2 x 2.715000
  1 settings made for x
set atom 2 y 2.715000
  1 settings made for y
set atom 2 z 0.000000
  1 settings made for z
set atom 3 x 2.715000
  1 settings made for x
set atom 3 y 0.000000
  1 settings made for y
set atom 3 z 2.715000
  1 settings made for z
set atom 4 x 0.000000
  1 settings made for x
set atom 4 y 2.715000
  1 settings made for y
set atom 4 z 2.715000
  1 settings made for z
set atom 5 x 1.357500
  1 settings made for x
set atom 5 y 1.357500
  1 settings made for y
set atom 5 z 1.357500
  1 settings made for z
set atom 6 x 4.072500
  1 settings made for x
set atom 6 y 4.072500
  1 settings made for y
set atom 6 z 1.357500
  1 settings made for z
set atom 7 x 4.072500
  1 settings made for x
set atom 7 y 1.357500
  1 settings made for y
set atom 7 z 4.072500
  1 settings made for z
set atom 8 x 1.357500
  1 settings made for x
set atom 8 y 4.072500
  1 settings made for y
set atom 8 z 4.072500
  1 settings made for z
run 0
Per MPI rank memory allocation (min/avg/max) = 2.688 | 2.688 | 2.688 Mbytes
Step Temp E_pair E_mol TotEng Press 
       0            0   -37.042515            0   -37.042515     681.5455 
Loop time of 2.98768e-06 on 1 procs for 0 steps with 8 atoms

0.0% CPU use with 1 MPI tasks x no OpenMP threads

MPI task timing breakdown:
Section |  min time  |  avg time  |  max time  |%varavg| %total
---------------------------------------------------------------
Pair    | 0          | 0          | 0          |   0.0 |  0.00
Neigh   | 0          | 0          | 0          |   0.0 |  0.00
Comm    | 0          | 0          | 0          |   0.0 |  0.00
Output  | 0          | 0          | 0          |   0.0 |  0.00
Modify  | 0          | 0          | 0          |   0.0 |  0.00
Other   |            | 2.988e-06  |            |       |100.00

Nlocal:    8 ave 8 max 8 min
Histogram: 1 0 0 0 0 0 0 0 0 0
Nghost:    86 ave 86 max 86 min
Histogram: 1 0 0 0 0 0 0 0 0 0
Neighs:    0 ave 0 max 0 min
Histogram: 1 0 0 0 0 0 0 0 0 0
FullNghs:  32 ave 32 max 32 min
Histogram: 1 0 0 0 0 0 0 0 0 0

Total # of neighbors = 32
Ave neighs/atom = 4
Neighbor list builds = 0
Dangerous builds = 0sset atom 1 x 0.000000
  1 settings made for x
set atom 1 y 0.000000
  1 settings made for y
set atom 1 z -0.010000
  1 settings made for z
set atom 2 x 2.715000
  1 settings made for x
set atom 2 y 2.715000
  1 settings made for y
set atom 2 z 0.000000
  1 settings made for z
set atom 3 x 2.715000
  1 settings made for x
set atom 3 y 0.000000
  1 settings made for y
set atom 3 z 2.715000
  1 settings made for z
set atom 4 x 0.000000
  1 settings made for x
set atom 4 y 2.715000
  1 settings made for y
set atom 4 z 2.715000
  1 settings made for z
set atom 5 x 1.357500
  1 settings made for x
set atom 5 y 1.357500
  1 settings made for y
set atom 5 z 1.357500
  1 settings made for z
set atom 6 x 4.072500
  1 settings made for x
set atom 6 y 4.072500
  1 settings made for y
set atom 6 z 1.357500
  1 settings made for z
set atom 7 x 4.072500
  1 settings made for x
set atom 7 y 1.357500
  1 settings made for y
set atom 7 z 4.072500
  1 settings made for z
set atom 8 x 1.357500
  1 settings made for x
set atom 8 y 4.072500
  1 settings made for y
set atom 8 z 4.072500
  1 settings made for z
run 0
Per MPI rank memory allocation (min/avg/max) = 2.688 | 2.688 | 2.688 Mbytes
Step Temp E_pair E_mol TotEng Press 
       0            0   -37.042515            0   -37.042515     681.5455 
Loop time of 2.84333e-06 on 1 procs for 0 steps with 8 atoms

0.0% CPU use with 1 MPI tasks x no OpenMP threads

MPI task timing breakdown:
Section |  min time  |  avg time  |  max time  |%varavg| %total
---------------------------------------------------------------
Pair    | 0          | 0          | 0          |   0.0 |  0.00
Neigh   | 0          | 0          | 0          |   0.0 |  0.00
Comm    | 0          | 0          | 0          |   0.0 |  0.00
Output  | 0          | 0          | 0          |   0.0 |  0.00
Modify  | 0          | 0          | 0          |   0.0 |  0.00
Other   |            | 2.843e-06  |            |       |100.00

Nlocal:    8 ave 8 max 8 min
Histogram: 1 0 0 0 0 0 0 0 0 0
Nghost:    86 ave 86 max 86 min
Histogram: 1 0 0 0 0 0 0 0 0 0
Neighs:    0 ave 0 max 0 min
Histogram: 1 0 0 0 0 0 0 0 0 0
FullNghs:  32 ave 32 max 32 min
Histogram: 1 0 0 0 0 0 0 0 0 0

Total # of neighbors = 32
Ave neighs/atom = 4
Neighbor list builds = 0
Dangerous builds = 0sset atom 1 x 0.000000
  1 settings made for x
set atom 1 y 0.000000
  1 settings made for y
set atom 1 z 0.000000
  1 settings made for z
set atom 2 x 2.715000
  1 settings made for x
set atom 2 y 2.715000
  1 settings made for y
set atom 2 z 0.000000
  1 settings made for z
set atom 3 x 2.715000
  1 settings made for x
set atom 3 y 0.000000
  1 settings made for y
set atom 3 z 2.715000
  1 settings made for z
set atom 4 x 0.000000
  1 settings made for x
set atom 4 y 2.715000
  1 settings made for y
set atom 4 z 2.715000
  1 settings made for z
set atom 5 x 1.367500
  1 settings made for x
set atom 5 y 1.357500
  1 settings made for y
set atom 5 z 1.357500
  1 settings made for z
set atom 6 x 4.072500
  1 settings made for x
set atom 6 y 4.072500
  1 settings made for y
set atom 6 z 1.357500
  1 settings made for z
set atom 7 x 4.072500
  1 settings made for x
set atom 7 y 1.357500
  1 settings made for y
set atom 7 z 4.072500
  1 settings made for z
set atom 8 x 1.357500
  1 settings made for x
set atom 8 y 4.072500
  1 settings made for y
set atom 8 z 4.072500
  1 settings made for z
run 0
Per MPI rank memory allocation (min/avg/max) = 2.688 | 2.688 | 2.688 Mbytes
Step Temp E_pair E_mol TotEng Press 
       0            0   -37.042515            0   -37.042515     681.5455 
Loop time of 2.80514e-06 on 1 procs for 0 steps with 8 atoms

0.0% CPU use with 1 MPI tasks x no OpenMP threads

MPI task timing breakdown:
Section |  min time  |  avg time  |  max time  |%varavg| %total
---------------------------------------------------------------
Pair    | 0          | 0          | 0          |   0.0 |  0.00
Neigh   | 0          | 0          | 0          |   0.0 |  0.00
Comm    | 0          | 0          | 0          |   0.0 |  0.00
Output  | 0          | 0          | 0          |   0.0 |  0.00
Modify  | 0          | 0          | 0          |   0.0 |  0.00
Other   |            | 2.805e-06  |            |       |100.00

Nlocal:    8 ave 8 max 8 min
Histogram: 1 0 0 0 0 0 0 0 0 0
Nghost:    86 ave 86 max 86 min
Histogram: 1 0 0 0 0 0 0 0 0 0
Neighs:    0 ave 0 max 0 min
Histogram: 1 0 0 0 0 0 0 0 0 0
FullNghs:  32 ave 32 max 32 min
Histogram: 1 0 0 0 0 0 0 0 0 0

Total # of neighbors = 32
Ave neighs/atom = 4
Neighbor list builds = 0
Dangerous builds = 0sset atom 1 x 0.000000
  1 settings made for x
set atom 1 y 0.000000
  1 settings made for y
set atom 1 z 0.000000
  1 settings made for z
set atom 2 x 2.715000
  1 settings made for x
set atom 2 y 2.715000
  1 settings made for y
set atom 2 z 0.000000
  1 settings made for z
set atom 3 x 2.715000
  1 settings made for x
set atom 3 y 0.000000
  1 settings made for y
set atom 3 z 2.715000
  1 settings made for z
set atom 4 x 0.000000
  1 settings made for x
set atom 4 y 2.715000
  1 settings made for y
set atom 4 z 2.715000
  1 settings made for z
set atom 5 x 1.347500
  1 settings made for x
set atom 5 y 1.357500
  1 settings made for y
set atom 5 z 1.357500
  1 settings made for z
set atom 6 x 4.072500
  1 settings made for x
set atom 6 y 4.072500
  1 settings made for y
set atom 6 z 1.357500
  1 settings made for z
set atom 7 x 4.072500
  1 settings made for x
set atom 7 y 1.357500
  1 settings made for y
set atom 7 z 4.072500
  1 settings made for z
set atom 8 x 1.357500
  1 settings made for x
set atom 8 y 4.072500
  1 settings made for y
set atom 8 z 4.072500
  1 settings made for z
run 0
Per MPI rank memory allocation (min/avg/max) = 2.688 | 2.688 | 2.688 Mbytes
Step Temp E_pair E_mol TotEng Press 
       0            0   -37.042515            0   -37.042515     681.5455 
Loop time of 2.7772e-06 on 1 procs for 0 steps with 8 atoms

0.0% CPU use with 1 MPI tasks x no OpenMP threads

MPI task timing breakdown:
Section |  min time  |  avg time  |  max time  |%varavg| %total
---------------------------------------------------------------
Pair    | 0          | 0          | 0          |   0.0 |  0.00
Neigh   | 0          | 0          | 0          |   0.0 |  0.00
Comm    | 0          | 0          | 0          |   0.0 |  0.00
Output  | 0          | 0          | 0          |   0.0 |  0.00
Modify  | 0          | 0          | 0          |   0.0 |  0.00
Other   |            | 2.777e-06  |            |       |100.00

Nlocal:    8 ave 8 max 8 min
Histogram: 1 0 0 0 0 0 0 0 0 0
Nghost:    86 ave 86 max 86 min
Histogram: 1 0 0 0 0 0 0 0 0 0
Neighs:    0 ave 0 max 0 min
Histogram: 1 0 0 0 0 0 0 0 0 0
FullNghs:  32 ave 32 max 32 min
Histogram: 1 0 0 0 0 0 0 0 0 0

Total # of neighbors = 32
Ave neighs/atom = 4
Neighbor list builds = 0
Dangerous builds = 0
set atom 1 x 0.000000
  1 settings made for x
set atom 1 y 0.000000
  1 settings made for y
set atom 1 z 0.000000
  1 settings made for z
set atom 2 x 2.715000
  1 settings made for x
set atom 2 y 2.715000
  1 settings made for y
set atom 2 z 0.000000
  1 settings made for z
set atom 3 x 2.715000
  1 settings made for x
set atom 3 y 0.000000
  1 settings made for y
set atom 3 z 2.715000
  1 settings made for z
set atom 4 x 0.000000
  1 settings made for x
set atom 4 y 2.715000
  1 settings made for y
set atom 4 z 2.715000
  1 settings made for z
set atom 5 x 1.357500
  1 settings made for x
set atom 5 y 1.367500
  1 settings made for y
set atom 5 z 1.357500
  1 settings made for z
set atom 6 x 4.072500
  1 settings made for x
set atom 6 y 4.072500
  1 settings made for y
set atom 6 z 1.357500
  1 settings made for z
set atom 7 x 4.072500
  1 settings made for x
set atom 7 y 1.357500
  1 settings made for y
set atom 7 z 4.072500
  1 settings made for z
set atom 8 x 1.357500
  1 settings made for x
set atom 8 y 4.072500
  1 settings made for y
set atom 8 z 4.072500
  1 settings made for z
run 0
Per MPI rank memory allocation (min/avg/max) = 2.688 | 2.688 | 2.688 Mbytes
Step Temp E_pair E_mol TotEng Press 
       0            0   -37.042515            0   -37.042515     681.5455 
Loop time of 2.81166e-06 on 1 procs for 0 steps with 8 atoms

0.0% CPU use with 1 MPI tasks x no OpenMP threads

MPI task timing breakdown:
Section |  min time  |  avg time  |  max time  |%varavg| %total
---------------------------------------------------------------
Pair    | 0          | 0          | 0          |   0.0 |  0.00
Neigh   | 0          | 0          | 0          |   0.0 |  0.00
Comm    | 0          | 0          | 0          |   0.0 |  0.00
Output  | 0          | 0          | 0          |   0.0 |  0.00
Modify  | 0          | 0          | 0          |   0.0 |  0.00
Other   |            | 2.812e-06  |            |       |100.00

Nlocal:    8 ave 8 max 8 min
Histogram: 1 0 0 0 0 0 0 0 0 0
Nghost:    86 ave 86 max 86 min
Histogram: 1 0 0 0 0 0 0 0 0 0
Neighs:    0 ave 0 max 0 min
Histogram: 1 0 0 0 0 0 0 0 0 0
FullNghs:  32 ave 32 max 32 min
Histogram: 1 0 0 0 0 0 0 0 0 0

Total # of neighbors = 32
Ave neighs/atom = 4
Neighbor list builds = 0
Dangerous builds = 0
set atom 1 x 0.000000
  1 settings made for x
set atom 1 y 0.000000
  1 settings made for y
set atom 1 z 0.000000
  1 settings made for z
set atom 2 x 2.715000
  1 settings made for x
set atom 2 y 2.715000
  1 settings made for y
set atom 2 z 0.000000
  1 settings made for z
set atom 3 x 2.715000
  1 settings made for x
set atom 3 y 0.000000
  1 settings made for y
set atom 3 z 2.715000
  1 settings made for z
set atom 4 x 0.000000
  1 settings made for x
set atom 4 y 2.715000
  1 settings made for y
set atom 4 z 2.715000
  1 settings made for z
set atom 5 x 1.357500
  1 settings made for x
set atom 5 y 1.347500
  1 settings made for y
set atom 5 z 1.357500
  1 settings made for z
set atom 6 x 4.072500
  1 settings made for x
set atom 6 y 4.072500
  1 settings made for y
set atom 6 z 1.357500
  1 settings made for z
set atom 7 x 4.072500
  1 settings made for x
set atom 7 y 1.357500
  1 settings made for y
set atom 7 z 4.072500
  1 settings made for z
set atom 8 x 1.357500
  1 settings made for x
set atom 8 y 4.072500
  1 settings made for y
set atom 8 z 4.072500
  1 settings made for z
run 0
Per MPI rank memory allocation (min/avg/max) = 2.688 | 2.688 | 2.688 Mbytes
Step Temp E_pair E_mol TotEng Press 
       0            0   -37.042515            0   -37.042515     681.5455 
Loop time of 2.75206e-06 on 1 procs for 0 steps with 8 atoms

0.0% CPU use with 1 MPI tasks x no OpenMP threads

MPI task timing breakdown:
Section |  min time  |  avg time  |  max time  |%varavg| %total
---------------------------------------------------------------
Pair    | 0          | 0          | 0          |   0.0 |  0.00
Neigh   | 0          | 0          | 0          |   0.0 |  0.00
Comm    | 0          | 0          | 0          |   0.0 |  0.00
Output  | 0          | 0          | 0          |   0.0 |  0.00
Modify  | 0          | 0          | 0          |   0.0 |  0.00
Other   |            | 2.752e-06  |            |       |100.00

Nlocal:    8 ave 8 max 8 min
Histogram: 1 0 0 0 0 0 0 0 0 0
Nghost:    86 ave 86 max 86 min
Histogram: 1 0 0 0 0 0 0 0 0 0
Neighs:    0 ave 0 max 0 min
Histogram: 1 0 0 0 0 0 0 0 0 0
FullNghs:  32 ave 32 max 32 min
Histogram: 1 0 0 0 0 0 0 0 0 0

Total # of neighbors = 32
Ave neighs/atom = 4
Neighbor list builds = 0
Dangerous builds = 0
set atom 1 x 0.000000
  1 settings made for x
set atom 1 y 0.000000
  1 settings made for y
set atom 1 z 0.000000
  1 settings made for z
set atom 2 x 2.715000
  1 settings made for x
set atom 2 y 2.715000
  1 settings made for y
set atom 2 z 0.000000
  1 settings made for z
set atom 3 x 2.715000
  1 settings made for x
set atom 3 y 0.000000
  1 settings made for y
set atom 3 z 2.715000
  1 settings made for z
set atom 4 x 0.000000
  1 settings made for x
set atom 4 y 2.715000
  1 settings made for y
set atom 4 z 2.715000
  1 settings made for z
set atom 5 x 1.357500
  1 settings made for x
set atom 5 y 1.357500
  1 settings made for y
set atom 5 z 1.367500
  1 settings made for z
set atom 6 x 4.072500
  1 settings made for x
set atom 6 y 4.072500
  1 settings made for y
set atom 6 z 1.357500
  1 settings made for z
set atom 7 x 4.072500
  1 settings made for x
set atom 7 y 1.357500
  1 settings made for y
set atom 7 z 4.072500
  1 settings made for z
set atom 8 x 1.357500
  1 settings made for x
set atom 8 y 4.072500
  1 settings made for y
set atom 8 z 4.072500
  1 settings made for z
run 0
Per MPI rank memory allocation (min/avg/max) = 2.688 | 2.688 | 2.688 Mbytes
Step Temp E_pair E_mol TotEng Press 
       0            0   -37.042515            0   -37.042515     681.5455 
Loop time of 2.75671e-06 on 1 procs for 0 steps with 8 atoms

0.0% CPU use with 1 MPI tasks x no OpenMP threads

MPI task timing breakdown:
Section |  min time  |  avg time  |  max time  |%varavg| %total
---------------------------------------------------------------
Pair    | 0          | 0          | 0          |   0.0 |  0.00
Neigh   | 0          | 0          | 0          |   0.0 |  0.00
Comm    | 0          | 0          | 0          |   0.0 |  0.00
Output  | 0          | 0          | 0          |   0.0 |  0.00
Modify  | 0          | 0          | 0          |   0.0 |  0.00
Other   |            | 2.757e-06  |            |       |100.00

Nlocal:    8 ave 8 max 8 min
Histogram: 1 0 0 0 0 0 0 0 0 0
Nghost:    86 ave 86 max 86 min
Histogram: 1 0 0 0 0 0 0 0 0 0
Neighs:    0 ave 0 max 0 min
Histogram: 1 0 0 0 0 0 0 0 0 0
FullNghs:  32 ave 32 max 32 min
Histogram: 1 0 0 0 0 0 0 0 0 0

Total # of neighbors = 32
Ave neighs/atom = 4
Neighbor list builds = 0
Dangerous builds = 0
set atom 1 x 0.000000
  1 settings made for x
set atom 1 y 0.000000
  1 settings made for y
set atom 1 z 0.000000
  1 settings made for z
set atom 2 x 2.715000
  1 settings made for x
set atom 2 y 2.715000
  1 settings made for y
set atom 2 z 0.000000
  1 settings made for z
set atom 3 x 2.715000
  1 settings made for x
set atom 3 y 0.000000
  1 settings made for y
set atom 3 z 2.715000
  1 settings made for z
set atom 4 x 0.000000
  1 settings made for x
set atom 4 y 2.715000
  1 settings made for y
set atom 4 z 2.715000
  1 settings made for z
set atom 5 x 1.357500
  1 settings made for x
set atom 5 y 1.357500
  1 settings made for y
set atom 5 z 1.347500
  1 settings made for z
set atom 6 x 4.072500
  1 settings made for x
set atom 6 y 4.072500
  1 settings made for y
set atom 6 z 1.357500
  1 settings made for z
set atom 7 x 4.072500
  1 settings made for x
set atom 7 y 1.357500
  1 settings made for y
set atom 7 z 4.072500
  1 settings made for z
set atom 8 x 1.357500
  1 settings made for x
set atom 8 y 4.072500
  1 settings made for y
set atom 8 z 4.072500
  1 settings made for z
run 0
Per MPI rank memory allocation (min/avg/max) = 2.688 | 2.688 | 2.688 Mbytes
Step Temp E_pair E_mol TotEng Press 
       0            0   -37.042515            0   -37.042515     681.5455 
Loop time of 2.76323e-06 on 1 procs for 0 steps with 8 atoms

0.0% CPU use with 1 MPI tasks x no OpenMP threads

MPI task timing breakdown:
Section |  min time  |  avg time  |  max time  |%varavg| %total
---------------------------------------------------------------
Pair    | 0          | 0          | 0          |   0.0 |  0.00
Neigh   | 0          | 0          | 0          |   0.0 |  0.00
Comm    | 0          | 0          | 0          |   0.0 |  0.00
Output  | 0          | 0          | 0          |   0.0 |  0.00
Modify  | 0          | 0          | 0          |   0.0 |  0.00
Other   |            | 2.763e-06  |            |       |100.00

Nlocal:    8 ave 8 max 8 min
Histogram: 1 0 0 0 0 0 0 0 0 0
Nghost:    86 ave 86 max 86 min
Histogram: 1 0 0 0 0 0 0 0 0 0
Neighs:    0 ave 0 max 0 min
Histogram: 1 0 0 0 0 0 0 0 0 0
FullNghs:  32 ave 32 max 32 min
Histogram: 1 0 0 0 0 0 0 0 0 0

Total # of neighbors = 32
Ave neighs/atom = 4
Neighbor list builds = 0
Dangerous builds = 0
set atom 1 x 0.000000
  1 settings made for x
set atom 1 y 0.000000
  1 settings made for y
set atom 1 z 0.000000
  1 settings made for z
set atom 2 x 2.715000
  1 settings made for x
set atom 2 y 2.715000
  1 settings made for y
set atom 2 z 0.000000
  1 settings made for z
set atom 3 x 2.715000
  1 settings made for x
set atom 3 y 0.000000
  1 settings made for y
set atom 3 z 2.715000
  1 settings made for z
set atom 4 x 0.000000
  1 settings made for x
set atom 4 y 2.715000
  1 settings made for y
set atom 4 z 2.715000
  1 settings made for z
set atom 5 x 1.357500
  1 settings made for x
set atom 5 y 1.357500
  1 settings made for y
set atom 5 z 1.357500
  1 settings made for z
set atom 6 x 4.082500
  1 settings made for x
set atom 6 y 4.072500
  1 settings made for y
set atom 6 z 1.357500
  1 settings made for z
set atom 7 x 4.072500
  1 settings made for x
set atom 7 y 1.357500
  1 settings made for y
set atom 7 z 4.072500
  1 settings made for z
set atom 8 x 1.357500
  1 settings made for x
set atom 8 y 4.072500
  1 settings made for y
set atom 8 z 4.072500
  1 settings made for z
run 0
Per MPI rank memory allocation (min/avg/max) = 2.688 | 2.688 | 2.688 Mbytes
Step Temp E_pair E_mol TotEng Press 
       0            0   -37.042515            0   -37.042515     681.5455 
Loop time of 2.78279e-06 on 1 procs for 0 steps with 8 atoms

0.0% CPU use with 1 MPI tasks x no OpenMP threads

MPI task timing breakdown:
Section |  min time  |  avg time  |  max time  |%varavg| %total
---------------------------------------------------------------
Pair    | 0          | 0          | 0          |   0.0 |  0.00
Neigh   | 0          | 0          | 0          |   0.0 |  0.00
Comm    | 0          | 0          | 0          |   0.0 |  0.00
Output  | 0          | 0          | 0          |   0.0 |  0.00
Modify  | 0          | 0          | 0          |   0.0 |  0.00
Other   |            | 2.783e-06  |            |       |100.00

Nlocal:    8 ave 8 max 8 min
Histogram: 1 0 0 0 0 0 0 0 0 0
Nghost:    86 ave 86 max 86 min
Histogram: 1 0 0 0 0 0 0 0 0 0
Neighs:    0 ave 0 max 0 min
Histogram: 1 0 0 0 0 0 0 0 0 0
FullNghs:  32 ave 32 max 32 min
Histogram: 1 0 0 0 0 0 0 0 0 0

Total # of neighbors = 32
Ave neighs/atom = 4
Neighbor list builds = 0
Dangerous builds = 0
sset atom 1 x 0.000000
  1 settings made for x
set atom 1 y 0.000000
  1 settings made for y
set atom 1 z 0.000000
  1 settings made for z
set atom 2 x 2.715000
  1 settings made for x
set atom 2 y 2.715000
  1 settings made for y
set atom 2 z -0.010000
  1 settings made for z
set atom 3 x 2.715000
  1 settings made for x
set atom 3 y 0.000000
  1 settings made for y
set atom 3 z 2.715000
  1 settings made for z
set atom 4 x 0.000000
  1 settings made for x
set atom 4 y 2.715000
  1 settings made for y
set atom 4 z 2.715000
  1 settings made for z
set atom 5 x 1.357500
  1 settings made for x
set atom 5 y 1.357500
  1 settings made for y
set atom 5 z 1.357500
  1 settings made for z
set atom 6 x 4.072500
  1 settings made for x
set atom 6 y 4.072500
  1 settings made for y
set atom 6 z 1.357500
  1 settings made for z
set atom 7 x 4.072500
  1 settings made for x
set atom 7 y 1.357500
  1 settings made for y
set atom 7 z 4.072500
  1 settings made for z
set atom 8 x 1.357500
  1 settings made for x
set atom 8 y 4.072500
  1 settings made for y
set atom 8 z 4.072500
  1 settings made for z
run 0
Per MPI rank memory allocation (min/avg/max) = 2.688 | 2.688 | 2.688 Mbytes
Step Temp E_pair E_mol TotEng Press 
       0            0   -37.042515            0   -37.042515     681.5455 
Loop time of 2.15508e-06 on 1 procs for 0 steps with 8 atoms

0.0% CPU use with 1 MPI tasks x no OpenMP threads

MPI task timing breakdown:
Section |  min time  |  avg time  |  max time  |%varavg| %total
---------------------------------------------------------------
Pair    | 0          | 0          | 0          |   0.0 |  0.00
Neigh   | 0          | 0          | 0          |   0.0 |  0.00
Comm    | 0          | 0          | 0          |   0.0 |  0.00
Output  | 0          | 0          | 0          |   0.0 |  0.00
Modify  | 0          | 0          | 0          |   0.0 |  0.00
Other   |            | 2.155e-06  |            |       |100.00

Nlocal:    8 ave 8 max 8 min
Histogram: 1 0 0 0 0 0 0 0 0 0
Nghost:    86 ave 86 max 86 min
Histogram: 1 0 0 0 0 0 0 0 0 0
Neighs:    0 ave 0 max 0 min
Histogram: 1 0 0 0 0 0 0 0 0 0
FullNghs:  32 ave 32 max 32 min
Histogram: 1 0 0 0 0 0 0 0 0 0

Total # of neighbors = 32
Ave neighs/atom = 4
Neighbor list builds = 0
Dangerous builds = seset atom 1 x 0.000000
  1 settings made for x
set atom 1 y 0.000000
  1 settings made for y
set atom 1 z 0.000000
  1 settings made for z
set atom 2 x 2.715000
  1 settings made for x
set atom 2 y 2.715000
  1 settings made for y
set atom 2 z 0.000000
  1 settings made for z
set atom 3 x 2.725000
  1 settings made for x
set atom 3 y 0.000000
  1 settings made for y
set atom 3 z 2.715000
  1 settings made for z
set atom 4 x 0.000000
  1 settings made for x
set atom 4 y 2.715000
  1 settings made for y
set atom 4 z 2.715000
  1 settings made for z
set atom 5 x 1.357500
  1 settings made for x
set atom 5 y 1.357500
  1 settings made for y
set atom 5 z 1.357500
  1 settings made for z
set atom 6 x 4.072500
  1 settings made for x
set atom 6 y 4.072500
  1 settings made for y
set atom 6 z 1.357500
  1 settings made for z
set atom 7 x 4.072500
  1 settings made for x
set atom 7 y 1.357500
  1 settings made for y
set atom 7 z 4.072500
  1 settings made for z
set atom 8 x 1.357500
  1 settings made for x
set atom 8 y 4.072500
  1 settings made for y
set atom 8 z 4.072500
  1 settings made for z
run 0
Per MPI rank memory allocation (min/avg/max) = 2.688 | 2.688 | 2.688 Mbytes
Step Temp E_pair E_mol TotEng Press 
       0            0   -37.042515            0   -37.042515     681.5455 
Loop time of 2.14111e-06 on 1 procs for 0 steps with 8 atoms

0.0% CPU use with 1 MPI tasks x no OpenMP threads

MPI task timing breakdown:
Section |  min time  |  avg time  |  max time  |%varavg| %total
---------------------------------------------------------------
Pair    | 0          | 0          | 0          |   0.0 |  0.00
Neigh   | 0          | 0          | 0          |   0.0 |  0.00
Comm    | 0          | 0          | 0          |   0.0 |  0.00
Output  | 0          | 0          | 0          |   0.0 |  0.00
Modify  | 0          | 0          | 0          |   0.0 |  0.00
Other   |            | 2.141e-06  |            |       |100.00

Nlocal:    8 ave 8 max 8 min
Histogram: 1 0 0 0 0 0 0 0 0 0
Nghost:    86 ave 86 max 86 min
Histogram: 1 0 0 0 0 0 0 0 0 0
Neighs:    0 ave 0 max 0 min
Histogram: 1 0 0 0 0 0 0 0 0 0
FullNghs:  32 ave 32 max 32 min
Histogram: 1 0 0 0 0 0 0 0 0 0

Total # of neighbors = 32
Ave neighs/atom = 4
Neighbor list builds = 0
Dangerous builds = seset atom 1 x 0.000000
  1 settings made for x
set atom 1 y 0.000000
  1 settings made for y
set atom 1 z 0.000000
  1 settings made for z
set atom 2 x 2.715000
  1 settings made for x
set atom 2 y 2.715000
  1 settings made for y
set atom 2 z 0.000000
  1 settings made for z
set atom 3 x 2.705000
  1 settings made for x
set atom 3 y 0.000000
  1 settings made for y
set atom 3 z 2.715000
  1 settings made for z
set atom 4 x 0.000000
  1 settings made for x
set atom 4 y 2.715000
  1 settings made for y
set atom 4 z 2.715000
  1 settings made for z
set atom 5 x 1.357500
  1 settings made for x
set atom 5 y 1.357500
  1 settings made for y
set atom 5 z 1.357500
  1 settings made for z
set atom 6 x 4.072500
  1 settings made for x
set atom 6 y 4.072500
  1 settings made for y
set atom 6 z 1.357500
  1 settings made for z
set atom 7 x 4.072500
  1 settings made for x
set atom 7 y 1.357500
  1 settings made for y
set atom 7 z 4.072500
  1 settings made for z
set atom 8 x 1.357500
  1 settings made for x
set atom 8 y 4.072500
  1 settings made for y
set atom 8 z 4.072500
  1 settings made for z
run 0
Per MPI rank memory allocation (min/avg/max) = 2.688 | 2.688 | 2.688 Mbytes
Step Temp E_pair E_mol TotEng Press 
       0            0   -37.042515            0   -37.042515     681.5455 
Loop time of 2.13645e-06 on 1 procs for 0 steps with 8 atoms

0.0% CPU use with 1 MPI tasks x no OpenMP threads

MPI task timing breakdown:
Section |  min time  |  avg time  |  max time  |%varavg| %total
---------------------------------------------------------------
Pair    | 0          | 0          | 0          |   0.0 |  0.00
Neigh   | 0          | 0          | 0          |   0.0 |  0.00
Comm    | 0          | 0          | 0          |   0.0 |  0.00
Output  | 0          | 0          | 0          |   0.0 |  0.00
Modify  | 0          | 0          | 0          |   0.0 |  0.00
Other   |            | 2.136e-06  |            |       |100.00

Nlocal:    8 ave 8 max 8 min
Histogram: 1 0 0 0 0 0 0 0 0 0
Nghost:    86 ave 86 max 86 min
Histogram: 1 0 0 0 0 0 0 0 0 0
Neighs:    0 ave 0 max 0 min
Histogram: 1 0 0 0 0 0 0 0 0 0
FullNghs:  32 ave 32 max 32 min
Histogram: 1 0 0 0 0 0 0 0 0 0

Total # of neighbors = 32
Ave neighs/atom = 4
Neighbor list builds = 0
Dangerous builds = seset atom 1 x 0.000000
  1 settings made for x
set atom 1 y 0.000000
  1 settings made for y
set atom 1 z 0.000000
  1 settings made for z
set atom 2 x 2.715000
  1 settings made for x
set atom 2 y 2.715000
  1 settings made for y
set atom 2 z 0.000000
  1 settings made for z
set atom 3 x 2.715000
  1 settings made for x
set atom 3 y 0.010000
  1 settings made for y
set atom 3 z 2.715000
  1 settings made for z
set atom 4 x 0.000000
  1 settings made for x
set atom 4 y 2.715000
  1 settings made for y
set atom 4 z 2.715000
  1 settings made for z
set atom 5 x 1.357500
  1 settings made for x
set atom 5 y 1.357500
  1 settings made for y
set atom 5 z 1.357500
  1 settings made for z
set atom 6 x 4.072500
  1 settings made for x
set atom 6 y 4.072500
  1 settings made for y
set atom 6 z 1.357500
  1 settings made for z
set atom 7 x 4.072500
  1 settings made for x
set atom 7 y 1.357500
  1 settings made for y
set atom 7 z 4.072500
  1 settings made for z
set atom 8 x 1.357500
  1 settings made for x
set atom 8 y 4.072500
  1 settings made for y
set atom 8 z 4.072500
  1 settings made for z
run 0
Per MPI rank memory allocation (min/avg/max) = 2.688 | 2.688 | 2.688 Mbytes
Step Temp E_pair E_mol TotEng Press 
       0            0   -37.042515            0   -37.042515     681.5455 
Loop time of 2.1616e-06 on 1 procs for 0 steps with 8 atoms

0.0% CPU use with 1 MPI tasks x no OpenMP threads

MPI task timing breakdown:
Section |  min time  |  avg time  |  max time  |%varavg| %total
---------------------------------------------------------------
Pair    | 0          | 0          | 0          |   0.0 |  0.00
Neigh   | 0          | 0          | 0          |   0.0 |  0.00
Comm    | 0          | 0          | 0          |   0.0 |  0.00
Output  | 0          | 0          | 0          |   0.0 |  0.00
Modify  | 0          | 0          | 0          |   0.0 |  0.00
Other   |            | 2.162e-06  |            |       |100.00

Nlocal:    8 ave 8 max 8 min
Histogram: 1 0 0 0 0 0 0 0 0 0
Nghost:    86 ave 86 max 86 min
Histogram: 1 0 0 0 0 0 0 0 0 0
Neighs:    0 ave 0 max 0 min
Histogram: 1 0 0 0 0 0 0 0 0 0
FullNghs:  32 ave 32 max 32 min
Histogram: 1 0 0 0 0 0 0 0 0 0

Total # of neighbors = 32
Ave neighs/atom = 4
Neighbor list builds = 0
Dangerous builds = 0sset atom 1 x 0.000000
  1 settings made for x
set atom 1 y 0.000000
  1 settings made for y
set atom 1 z 0.000000
  1 settings made for z
set atom 2 x 2.715000
  1 settings made for x
set atom 2 y 2.715000
  1 settings made for y
set atom 2 z 0.000000
  1 settings made for z
set atom 3 x 2.715000
  1 settings made for x
set atom 3 y -0.010000
  1 settings made for y
set atom 3 z 2.715000
  1 settings made for z
set atom 4 x 0.000000
  1 settings made for x
set atom 4 y 2.715000
  1 settings made for y
set atom 4 z 2.715000
  1 settings made for z
set atom 5 x 1.357500
  1 settings made for x
set atom 5 y 1.357500
  1 settings made for y
set atom 5 z 1.357500
  1 settings made for z
set atom 6 x 4.072500
  1 settings made for x
set atom 6 y 4.072500
  1 settings made for y
set atom 6 z 1.357500
  1 settings made for z
set atom 7 x 4.072500
  1 settings made for x
set atom 7 y 1.357500
  1 settings made for y
set atom 7 z 4.072500
  1 settings made for z
set atom 8 x 1.357500
  1 settings made for x
set atom 8 y 4.072500
  1 settings made for y
set atom 8 z 4.072500
  1 settings made for z
run 0
Per MPI rank memory allocation (min/avg/max) = 2.688 | 2.688 | 2.688 Mbytes
Step Temp E_pair E_mol TotEng Press 
       0            0   -37.042515            0   -37.042515     681.5455 
Loop time of 2.15881e-06 on 1 procs for 0 steps with 8 atoms

0.0% CPU use with 1 MPI tasks x no OpenMP threads

MPI task timing breakdown:
Section |  min time  |  avg time  |  max time  |%varavg| %total
---------------------------------------------------------------
Pair    | 0          | 0          | 0          |   0.0 |  0.00
Neigh   | 0          | 0          | 0          |   0.0 |  0.00
Comm    | 0          | 0          | 0          |   0.0 |  0.00
Output  | 0          | 0          | 0          |   0.0 |  0.00
Modify  | 0          | 0          | 0          |   0.0 |  0.00
Other   |            | 2.159e-06  |            |       |100.00

Nlocal:    8 ave 8 max 8 min
Histogram: 1 0 0 0 0 0 0 0 0 0
Nghost:    86 ave 86 max 86 min
Histogram: 1 0 0 0 0 0 0 0 0 0
Neighs:    0 ave 0 max 0 min
Histogram: 1 0 0 0 0 0 0 0 0 0
FullNghs:  32 ave 32 max 32 min
Histogram: 1 0 0 0 0 0 0 0 0 0

Total # of neighbors = 32
Ave neighs/atom = 4
Neighbor list builds = 0
Dangerous builds = seset atom 1 x 0.000000
  1 settings made for x
set atom 1 y 0.000000
  1 settings made for y
set atom 1 z 0.000000
  1 settings made for z
set atom 2 x 2.715000
  1 settings made for x
set atom 2 y 2.715000
  1 settings made for y
set atom 2 z 0.000000
  1 settings made for z
set atom 3 x 2.715000
  1 settings made for x
set atom 3 y 0.000000
  1 settings made for y
set atom 3 z 2.725000
  1 settings made for z
set atom 4 x 0.000000
  1 settings made for x
set atom 4 y 2.715000
  1 settings made for y
set atom 4 z 2.715000
  1 settings made for z
set atom 5 x 1.357500
  1 settings made for x
set atom 5 y 1.357500
  1 settings made for y
set atom 5 z 1.357500
  1 settings made for z
set atom 6 x 4.072500
  1 settings made for x
set atom 6 y 4.072500
  1 settings made for y
set atom 6 z 1.357500
  1 settings made for z
set atom 7 x 4.072500
  1 settings made for x
set atom 7 y 1.357500
  1 settings made for y
set atom 7 z 4.072500
  1 settings made for z
set atom 8 x 1.357500
  1 settings made for x
set atom 8 y 4.072500
  1 settings made for y
set atom 8 z 4.072500
  1 settings made for z
run 0
Per MPI rank memory allocation (min/avg/max) = 2.688 | 2.688 | 2.688 Mbytes
Step Temp E_pair E_mol TotEng Press 
       0            0   -37.042515            0   -37.042515     681.5455 
Loop time of 2.11876e-06 on 1 procs for 0 steps with 8 atoms

0.0% CPU use with 1 MPI tasks x no OpenMP threads

MPI task timing breakdown:
Section |  min time  |  avg time  |  max time  |%varavg| %total
---------------------------------------------------------------
Pair    | 0          | 0          | 0          |   0.0 |  0.00
Neigh   | 0          | 0          | 0          |   0.0 |  0.00
Comm    | 0          | 0          | 0          |   0.0 |  0.00
Output  | 0          | 0          | 0          |   0.0 |  0.00
Modify  | 0          | 0          | 0          |   0.0 |  0.00
Other   |            | 2.119e-06  |            |       |100.00

Nlocal:    8 ave 8 max 8 min
Histogram: 1 0 0 0 0 0 0 0 0 0
Nghost:    86 ave 86 max 86 min
Histogram: 1 0 0 0 0 0 0 0 0 0
Neighs:    0 ave 0 max 0 min
Histogram: 1 0 0 0 0 0 0 0 0 0
FullNghs:  32 ave 32 max 32 min
Histogram: 1 0 0 0 0 0 0 0 0 0

Total # of neighbors = 32
Ave neighs/atom = 4
Neighbor list builds = 0
Dangerous builds = seset atom 1 x 0.000000
  1 settings made for x
set atom 1 y 0.000000
  1 settings made for y
set atom 1 z 0.000000
  1 settings made for z
set atom 2 x 2.715000
  1 settings made for x
set atom 2 y 2.715000
  1 settings made for y
set atom 2 z 0.000000
  1 settings made for z
set atom 3 x 2.715000
  1 settings made for x
set atom 3 y 0.000000
  1 settings made for y
set atom 3 z 2.705000
  1 settings made for z
set atom 4 x 0.000000
  1 settings made for x
set atom 4 y 2.715000
  1 settings made for y
set atom 4 z 2.715000
  1 settings made for z
set atom 5 x 1.357500
  1 settings made for x
set atom 5 y 1.357500
  1 settings made for y
set atom 5 z 1.357500
  1 settings made for z
set atom 6 x 4.072500
  1 settings made for x
set atom 6 y 4.072500
  1 settings made for y
set atom 6 z 1.357500
  1 settings made for z
set atom 7 x 4.072500
  1 settings made for x
set atom 7 y 1.357500
  1 settings made for y
set atom 7 z 4.072500
  1 settings made for z
set atom 8 x 1.357500
  1 settings made for x
set atom 8 y 4.072500
  1 settings made for y
set atom 8 z 4.072500
  1 settings made for z
run 0
Per MPI rank memory allocation (min/avg/max) = 2.688 | 2.688 | 2.688 Mbytes
Step Temp E_pair E_mol TotEng Press 
       0            0   -37.042515            0   -37.042515     681.5455 
Loop time of 2.15508e-06 on 1 procs for 0 steps with 8 atoms

0.0% CPU use with 1 MPI tasks x no OpenMP threads

MPI task timing breakdown:
Section |  min time  |  avg time  |  max time  |%varavg| %total
---------------------------------------------------------------
Pair    | 0          | 0          | 0          |   0.0 |  0.00
Neigh   | 0          | 0          | 0          |   0.0 |  0.00
Comm    | 0          | 0          | 0          |   0.0 |  0.00
Output  | 0          | 0          | 0          |   0.0 |  0.00
Modify  | 0          | 0          | 0          |   0.0 |  0.00
Other   |            | 2.155e-06  |            |       |100.00

Nlocal:    8 ave 8 max 8 min
Histogram: 1 0 0 0 0 0 0 0 0 0
Nghost:    86 ave 86 max 86 min
Histogram: 1 0 0 0 0 0 0 0 0 0
Neighs:    0 ave 0 max 0 min
Histogram: 1 0 0 0 0 0 0 0 0 0
FullNghs:  32 ave 32 max 32 min
Histogram: 1 0 0 0 0 0 0 0 0 0

Total # of neighbors = 32
Ave neighs/atom = 4
Neighbor list builds = 0
Dangerous builds = seset atom 1 x 0.000000
  1 settings made for x
set atom 1 y 0.000000
  1 settings made for y
set atom 1 z 0.000000
  1 settings made for z
set atom 2 x 2.715000
  1 settings made for x
set atom 2 y 2.715000
  1 settings made for y
set atom 2 z 0.000000
  1 settings made for z
set atom 3 x 2.715000
  1 settings made for x
set atom 3 y 0.000000
  1 settings made for y
set atom 3 z 2.715000
  1 settings made for z
set atom 4 x 0.010000
  1 settings made for x
set atom 4 y 2.715000
  1 settings made for y
set atom 4 z 2.715000
  1 settings made for z
set atom 5 x 1.357500
  1 settings made for x
set atom 5 y 1.357500
  1 settings made for y
set atom 5 z 1.357500
  1 settings made for z
set atom 6 x 4.072500
  1 settings made for x
set atom 6 y 4.072500
  1 settings made for y
set atom 6 z 1.357500
  1 settings made for z
set atom 7 x 4.072500
  1 settings made for x
set atom 7 y 1.357500
  1 settings made for y
set atom 7 z 4.072500
  1 settings made for z
set atom 8 x 1.357500
  1 settings made for x
set atom 8 y 4.072500
  1 settings made for y
set atom 8 z 4.072500
  1 settings made for z
run 0
Per MPI rank memory allocation (min/avg/max) = 2.688 | 2.688 | 2.688 Mbytes
Step Temp E_pair E_mol TotEng Press 
       0            0   -37.042515            0   -37.042515     681.5455 
Loop time of 2.13459e-06 on 1 procs for 0 steps with 8 atoms

0.0% CPU use with 1 MPI tasks x no OpenMP threads

MPI task timing breakdown:
Section |  min time  |  avg time  |  max time  |%varavg| %total
---------------------------------------------------------------
Pair    | 0          | 0          | 0          |   0.0 |  0.00
Neigh   | 0          | 0          | 0          |   0.0 |  0.00
Comm    | 0          | 0          | 0          |   0.0 |  0.00
Output  | 0          | 0          | 0          |   0.0 |  0.00
Modify  | 0          | 0          | 0          |   0.0 |  0.00
Other   |            | 2.135e-06  |            |       |100.00

Nlocal:    8 ave 8 max 8 min
Histogram: 1 0 0 0 0 0 0 0 0 0
Nghost:    86 ave 86 max 86 min
Histogram: 1 0 0 0 0 0 0 0 0 0
Neighs:    0 ave 0 max 0 min
Histogram: 1 0 0 0 0 0 0 0 0 0
FullNghs:  32 ave 32 max 32 min
Histogram: 1 0 0 0 0 0 0 0 0 0

Total # of neighbors = 32
Ave neighs/atom = 4
Neighbor list builds = 0
Dangerous builds = seset atom 1 x 0.000000
  1 settings made for x
set atom 1 y 0.000000
  1 settings made for y
set atom 1 z 0.000000
  1 settings made for z
set atom 2 x 2.715000
  1 settings made for x
set atom 2 y 2.715000
  1 settings made for y
set atom 2 z 0.000000
  1 settings made for z
set atom 3 x 2.715000
  1 settings made for x
set atom 3 y 0.000000
  1 settings made for y
set atom 3 z 2.715000
  1 settings made for z
set atom 4 x -0.010000
  1 settings made for x
set atom 4 y 2.715000
  1 settings made for y
set atom 4 z 2.715000
  1 settings made for z
set atom 5 x 1.357500
  1 settings made for x
set atom 5 y 1.357500
  1 settings made for y
set atom 5 z 1.357500
  1 settings made for z
set atom 6 x 4.072500
  1 settings made for x
set atom 6 y 4.072500
  1 settings made for y
set atom 6 z 1.357500
  1 settings made for z
set atom 7 x 4.072500
  1 settings made for x
set atom 7 y 1.357500
  1 settings made for y
set atom 7 z 4.072500
  1 settings made for z
set atom 8 x 1.357500
  1 settings made for x
set atom 8 y 4.072500
  1 settings made for y
set atom 8 z 4.072500
  1 settings made for z
run 0
Per MPI rank memory allocation (min/avg/max) = 2.688 | 2.688 | 2.688 Mbytes
Step Temp E_pair E_mol TotEng Press 
       0            0   -37.042515            0   -37.042515     681.5455 
Loop time of 2.15042e-06 on 1 procs for 0 steps with 8 atoms

0.0% CPU use with 1 MPI tasks x no OpenMP threads

MPI task timing breakdown:
Section |  min time  |  avg time  |  max time  |%varavg| %total
---------------------------------------------------------------
Pair    | 0          | 0          | 0          |   0.0 |  0.00
Neigh   | 0          | 0          | 0          |   0.0 |  0.00
Comm    | 0          | 0          | 0          |   0.0 |  0.00
Output  | 0          | 0          | 0          |   0.0 |  0.00
Modify  | 0          | 0          | 0          |   0.0 |  0.00
Other   |            | 2.15e-06   |            |       |100.00

Nlocal:    8 ave 8 max 8 min
Histogram: 1 0 0 0 0 0 0 0 0 0
Nghost:    86 ave 86 max 86 min
Histogram: 1 0 0 0 0 0 0 0 0 0
Neighs:    0 ave 0 max 0 min
Histogram: 1 0 0 0 0 0 0 0 0 0
FullNghs:  32 ave 32 max 32 min
Histogram: 1 0 0 0 0 0 0 0 0 0

Total # of neighbors = 32
Ave neighs/atom = 4
Neighbor list builds = 0
Dangerous builds =setset atom 1 x 0.000000
  1 settings made for x
set atom 1 y 0.000000
  1 settings made for y
set atom 1 z 0.000000
  1 settings made for z
set atom 2 x 2.715000
  1 settings made for x
set atom 2 y 2.715000
  1 settings made for y
set atom 2 z 0.000000
  1 settings made for z
set atom 3 x 2.715000
  1 settings made for x
set atom 3 y 0.000000
  1 settings made for y
set atom 3 z 2.715000
  1 settings made for z
set atom 4 x 0.000000
  1 settings made for x
set atom 4 y 2.725000
  1 settings made for y
set atom 4 z 2.715000
  1 settings made for z
set atom 5 x 1.357500
  1 settings made for x
set atom 5 y 1.357500
  1 settings made for y
set atom 5 z 1.357500
  1 settings made for z
set atom 6 x 4.072500
  1 settings made for x
set atom 6 y 4.072500
  1 settings made for y
set atom 6 z 1.357500
  1 settings made for z
set atom 7 x 4.072500
  1 settings made for x
set atom 7 y 1.357500
  1 settings made for y
set atom 7 z 4.072500
  1 settings made for z
set atom 8 x 1.357500
  1 settings made for x
set atom 8 y 4.072500
  1 settings made for y
set atom 8 z 4.072500
  1 settings made for z
run 0
Per MPI rank memory allocation (min/avg/max) = 2.688 | 2.688 | 2.688 Mbytes
Step Temp E_pair E_mol TotEng Press 
       0            0   -37.042515            0   -37.042515     681.5455 
Loop time of 2.2715e-06 on 1 procs for 0 steps with 8 atoms

0.0% CPU use with 1 MPI tasks x no OpenMP threads

MPI task timing breakdown:
Section |  min time  |  avg time  |  max time  |%varavg| %total
---------------------------------------------------------------
Pair    | 0          | 0          | 0          |   0.0 |  0.00
Neigh   | 0          | 0          | 0          |   0.0 |  0.00
Comm    | 0          | 0          | 0          |   0.0 |  0.00
Output  | 0          | 0          | 0          |   0.0 |  0.00
Modify  | 0          | 0          | 0          |   0.0 |  0.00
Other   |            | 2.271e-06  |            |       |100.00

Nlocal:    8 ave 8 max 8 min
Histogram: 1 0 0 0 0 0 0 0 0 0
Nghost:    86 ave 86 max 86 min
Histogram: 1 0 0 0 0 0 0 0 0 0
Neighs:    0 ave 0 max 0 min
Histogram: 1 0 0 0 0 0 0 0 0 0
FullNghs:  32 ave 32 max 32 min
Histogram: 1 0 0 0 0 0 0 0 0 0

Total # of neighbors = 32
Ave neighs/atom = 4
Neighbor list builds = 0
Dangerous builds = seset atom 1 x 0.000000
  1 settings made for x
set atom 1 y 0.000000
  1 settings made for y
set atom 1 z 0.000000
  1 settings made for z
set atom 2 x 2.715000
  1 settings made for x
set atom 2 y 2.715000
  1 settings made for y
set atom 2 z 0.000000
  1 settings made for z
set atom 3 x 2.715000
  1 settings made for x
set atom 3 y 0.000000
  1 settings made for y
set atom 3 z 2.715000
  1 settings made for z
set atom 4 x 0.000000
  1 settings made for x
set atom 4 y 2.705000
  1 settings made for y
set atom 4 z 2.715000
  1 settings made for z
set atom 5 x 1.357500
  1 settings made for x
set atom 5 y 1.357500
  1 settings made for y
set atom 5 z 1.357500
  1 settings made for z
set atom 6 x 4.072500
  1 settings made for x
set atom 6 y 4.072500
  1 settings made for y
set atom 6 z 1.357500
  1 settings made for z
set atom 7 x 4.072500
  1 settings made for x
set atom 7 y 1.357500
  1 settings made for y
set atom 7 z 4.072500
  1 settings made for z
set atom 8 x 1.357500
  1 settings made for x
set atom 8 y 4.072500
  1 settings made for y
set atom 8 z 4.072500
  1 settings made for z
run 0
Per MPI rank memory allocation (min/avg/max) = 2.688 | 2.688 | 2.688 Mbytes
Step Temp E_pair E_mol TotEng Press 
       0            0   -37.042515            0   -37.042515     681.5455 
Loop time of 2.17091e-06 on 1 procs for 0 steps with 8 atoms

0.0% CPU use with 1 MPI tasks x no OpenMP threads

MPI task timing breakdown:
Section |  min time  |  avg time  |  max time  |%varavg| %total
---------------------------------------------------------------
Pair    | 0          | 0          | 0          |   0.0 |  0.00
Neigh   | 0          | 0          | 0          |   0.0 |  0.00
Comm    | 0          | 0          | 0          |   0.0 |  0.00
Output  | 0          | 0          | 0          |   0.0 |  0.00
Modify  | 0          | 0          | 0          |   0.0 |  0.00
Other   |            | 2.171e-06  |            |       |100.00

Nlocal:    8 ave 8 max 8 min
Histogram: 1 0 0 0 0 0 0 0 0 0
Nghost:    86 ave 86 max 86 min
Histogram: 1 0 0 0 0 0 0 0 0 0
Neighs:    0 ave 0 max 0 min
Histogram: 1 0 0 0 0 0 0 0 0 0
FullNghs:  32 ave 32 max 32 min
Histogram: 1 0 0 0 0 0 0 0 0 0

Total # of neighbors = 32
Ave neighs/atom = 4
Neighbor list builds = 0
Dangerous builds =setset atom 1 x 0.000000
  1 settings made for x
set atom 1 y 0.000000
  1 settings made for y
set atom 1 z 0.000000
  1 settings made for z
set atom 2 x 2.715000
  1 settings made for x
set atom 2 y 2.715000
  1 settings made for y
set atom 2 z 0.000000
  1 settings made for z
set atom 3 x 2.715000
  1 settings made for x
set atom 3 y 0.000000
  1 settings made for y
set atom 3 z 2.715000
  1 settings made for z
set atom 4 x 0.000000
  1 settings made for x
set atom 4 y 2.715000
  1 settings made for y
set atom 4 z 2.725000
  1 settings made for z
set atom 5 x 1.357500
  1 settings made for x
set atom 5 y 1.357500
  1 settings made for y
set atom 5 z 1.357500
  1 settings made for z
set atom 6 x 4.072500
  1 settings made for x
set atom 6 y 4.072500
  1 settings made for y
set atom 6 z 1.357500
  1 settings made for z
set atom 7 x 4.072500
  1 settings made for x
set atom 7 y 1.357500
  1 settings made for y
set atom 7 z 4.072500
  1 settings made for z
set atom 8 x 1.357500
  1 settings made for x
set atom 8 y 4.072500
  1 settings made for y
set atom 8 z 4.072500
  1 settings made for z
run 0
Per MPI rank memory allocation (min/avg/max) = 2.688 | 2.688 | 2.688 Mbytes
Step Temp E_pair E_mol TotEng Press 
       0            0   -37.042515            0   -37.042515     681.5455 
Loop time of 2.1467e-06 on 1 procs for 0 steps with 8 atoms

0.0% CPU use with 1 MPI tasks x no OpenMP threads

MPI task timing breakdown:
Section |  min time  |  avg time  |  max time  |%varavg| %total
---------------------------------------------------------------
Pair    | 0          | 0          | 0          |   0.0 |  0.00
Neigh   | 0          | 0          | 0          |   0.0 |  0.00
Comm    | 0          | 0          | 0          |   0.0 |  0.00
Output  | 0          | 0          | 0          |   0.0 |  0.00
Modify  | 0          | 0          | 0          |   0.0 |  0.00
Other   |            | 2.147e-06  |            |       |100.00

Nlocal:    8 ave 8 max 8 min
Histogram: 1 0 0 0 0 0 0 0 0 0
Nghost:    86 ave 86 max 86 min
Histogram: 1 0 0 0 0 0 0 0 0 0
Neighs:    0 ave 0 max 0 min
Histogram: 1 0 0 0 0 0 0 0 0 0
FullNghs:  32 ave 32 max 32 min
Histogram: 1 0 0 0 0 0 0 0 0 0

Total # of neighbors = 32
Ave neighs/atom = 4
Neighbor list builds = 0
Dangerous builds = seset atom 1 x 0.000000
  1 settings made for x
set atom 1 y 0.000000
  1 settings made for y
set atom 1 z 0.000000
  1 settings made for z
set atom 2 x 2.715000
  1 settings made for x
set atom 2 y 2.715000
  1 settings made for y
set atom 2 z 0.000000
  1 settings made for z
set atom 3 x 2.715000
  1 settings made for x
set atom 3 y 0.000000
  1 settings made for y
set atom 3 z 2.715000
  1 settings made for z
set atom 4 x 0.000000
  1 settings made for x
set atom 4 y 2.715000
  1 settings made for y
set atom 4 z 2.705000
  1 settings made for z
set atom 5 x 1.357500
  1 settings made for x
set atom 5 y 1.357500
  1 settings made for y
set atom 5 z 1.357500
  1 settings made for z
set atom 6 x 4.072500
  1 settings made for x
set atom 6 y 4.072500
  1 settings made for y
set atom 6 z 1.357500
  1 settings made for z
set atom 7 x 4.072500
  1 settings made for x
set atom 7 y 1.357500
  1 settings made for y
set atom 7 z 4.072500
  1 settings made for z
set atom 8 x 1.357500
  1 settings made for x
set atom 8 y 4.072500
  1 settings made for y
set atom 8 z 4.072500
  1 settings made for z
run 0
Per MPI rank memory allocation (min/avg/max) = 2.688 | 2.688 | 2.688 Mbytes
Step Temp E_pair E_mol TotEng Press 
       0            0   -37.042515            0   -37.042515     681.5455 
Loop time of 2.15694e-06 on 1 procs for 0 steps with 8 atoms

0.0% CPU use with 1 MPI tasks x no OpenMP threads

MPI task timing breakdown:
Section |  min time  |  avg time  |  max time  |%varavg| %total
---------------------------------------------------------------
Pair    | 0          | 0          | 0          |   0.0 |  0.00
Neigh   | 0          | 0          | 0          |   0.0 |  0.00
Comm    | 0          | 0          | 0          |   0.0 |  0.00
Output  | 0          | 0          | 0          |   0.0 |  0.00
Modify  | 0          | 0          | 0          |   0.0 |  0.00
Other   |            | 2.157e-06  |            |       |100.00

Nlocal:    8 ave 8 max 8 min
Histogram: 1 0 0 0 0 0 0 0 0 0
Nghost:    86 ave 86 max 86 min
Histogram: 1 0 0 0 0 0 0 0 0 0
Neighs:    0 ave 0 max 0 min
Histogram: 1 0 0 0 0 0 0 0 0 0
FullNghs:  32 ave 32 max 32 min
Histogram: 1 0 0 0 0 0 0 0 0 0

Total # of neighbors = 32
Ave neighs/atom = 4
Neighbor list builds = 0
Dangerous builds = seset atom 1 x 0.000000
  1 settings made for x
set atom 1 y 0.000000
  1 settings made for y
set atom 1 z 0.000000
  1 settings made for z
set atom 2 x 2.715000
  1 settings made for x
set atom 2 y 2.715000
  1 settings made for y
set atom 2 z 0.000000
  1 settings made for z
set atom 3 x 2.715000
  1 settings made for x
set atom 3 y 0.000000
  1 settings made for y
set atom 3 z 2.715000
  1 settings made for z
set atom 4 x 0.000000
  1 settings made for x
set atom 4 y 2.715000
  1 settings made for y
set atom 4 z 2.715000
  1 settings made for z
set atom 5 x 1.357500
  1 settings made for x
set atom 5 y 1.367500
  1 settings made for y
set atom 5 z 1.357500
  1 settings made for z
set atom 6 x 4.072500
  1 settings made for x
set atom 6 y 4.072500
  1 settings made for y
set atom 6 z 1.357500
  1 settings made for z
set atom 7 x 4.072500
  1 settings made for x
set atom 7 y 1.357500
  1 settings made for y
set atom 7 z 4.072500
  1 settings made for z
set atom 8 x 1.357500
  1 settings made for x
set atom 8 y 4.072500
  1 settings made for y
set atom 8 z 4.072500
  1 settings made for z
run 0
Per MPI rank memory allocation (min/avg/max) = 2.688 | 2.688 | 2.688 Mbytes
Step Temp E_pair E_mol TotEng Press 
       0            0   -37.042515            0   -37.042515     681.5455 
Loop time of 2.16719e-06 on 1 procs for 0 steps with 8 atoms

0.0% CPU use with 1 MPI tasks x no OpenMP threads

MPI task timing breakdown:
Section |  min time  |  avg time  |  max time  |%varavg| %total
---------------------------------------------------------------
Pair    | 0          | 0          | 0          |   0.0 |  0.00
Neigh   | 0          | 0          | 0          |   0.0 |  0.00
Comm    | 0          | 0          | 0          |   0.0 |  0.00
Output  | 0          | 0          | 0          |   0.0 |  0.00
Modify  | 0          | 0          | 0          |   0.0 |  0.00
Other   |            | 2.167e-06  |            |       |100.00

Nlocal:    8 ave 8 max 8 min
Histogram: 1 0 0 0 0 0 0 0 0 0
Nghost:    86 ave 86 max 86 min
Histogram: 1 0 0 0 0 0 0 0 0 0
Neighs:    0 ave 0 max 0 min
Histogram: 1 0 0 0 0 0 0 0 0 0
FullNghs:  32 ave 32 max 32 min
Histogram: 1 0 0 0 0 0 0 0 0 0

Total # of neighbors = 32
Ave neighs/atom = 4
Neighbor list builds = 0
Dangerous builds = seset atom 1 x 0.000000
  1 settings made for x
set atom 1 y 0.000000
  1 settings made for y
set atom 1 z 0.000000
  1 settings made for z
set atom 2 x 2.715000
  1 settings made for x
set atom 2 y 2.715000
  1 settings made for y
set atom 2 z 0.000000
  1 settings made for z
set atom 3 x 2.715000
  1 settings made for x
set atom 3 y 0.000000
  1 settings made for y
set atom 3 z 2.715000
  1 settings made for z
set atom 4 x 0.000000
  1 settings made for x
set atom 4 y 2.715000
  1 settings made for y
set atom 4 z 2.715000
  1 settings made for z
set atom 5 x 1.357500
  1 settings made for x
set atom 5 y 1.347500
  1 settings made for y
set atom 5 z 1.357500
  1 settings made for z
set atom 6 x 4.072500
  1 settings made for x
set atom 6 y 4.072500
  1 settings made for y
set atom 6 z 1.357500
  1 settings made for z
set atom 7 x 4.072500
  1 settings made for x
set atom 7 y 1.357500
  1 settings made for y
set atom 7 z 4.072500
  1 settings made for z
set atom 8 x 1.357500
  1 settings made for x
set atom 8 y 4.072500
  1 settings made for y
set atom 8 z 4.072500
  1 settings made for z
run 0
Per MPI rank memory allocation (min/avg/max) = 2.688 | 2.688 | 2.688 Mbytes
Step Temp E_pair E_mol TotEng Press 
       0            0   -37.042515            0   -37.042515     681.5455 
Loop time of 2.14856e-06 on 1 procs for 0 steps with 8 atoms

0.0% CPU use with 1 MPI tasks x no OpenMP threads

MPI task timing breakdown:
Section |  min time  |  avg time  |  max time  |%varavg| %total
---------------------------------------------------------------
Pair    | 0          | 0          | 0          |   0.0 |  0.00
Neigh   | 0          | 0          | 0          |   0.0 |  0.00
Comm    | 0          | 0          | 0          |   0.0 |  0.00
Output  | 0          | 0          | 0          |   0.0 |  0.00
Modify  | 0          | 0          | 0          |   0.0 |  0.00
Other   |            | 2.149e-06  |            |       |100.00

Nlocal:    8 ave 8 max 8 min
Histogram: 1 0 0 0 0 0 0 0 0 0
Nghost:    86 ave 86 max 86 min
Histogram: 1 0 0 0 0 0 0 0 0 0
Neighs:    0 ave 0 max 0 min
Histogram: 1 0 0 0 0 0 0 0 0 0
FullNghs:  32 ave 32 max 32 min
Histogram: 1 0 0 0 0 0 0 0 0 0

Total # of neighbors = 32
Ave neighs/atom = 4
Neighbor list builds = 0
Dangerous builds = seset atom 1 x 0.000000
  1 settings made for x
set atom 1 y 0.000000
  1 settings made for y
set atom 1 z 0.000000
  1 settings made for z
set atom 2 x 2.715000
  1 settings made for x
set atom 2 y 2.715000
  1 settings made for y
set atom 2 z 0.000000
  1 settings made for z
set atom 3 x 2.715000
  1 settings made for x
set atom 3 y 0.000000
  1 settings made for y
set atom 3 z 2.715000
  1 settings made for z
set atom 4 x 0.000000
  1 settings made for x
set atom 4 y 2.715000
  1 settings made for y
set atom 4 z 2.715000
  1 settings made for z
set atom 5 x 1.357500
  1 settings made for x
set atom 5 y 1.357500
  1 settings made for y
set atom 5 z 1.367500
  1 settings made for z
set atom 6 x 4.072500
  1 settings made for x
set atom 6 y 4.072500
  1 settings made for y
set atom 6 z 1.357500
  1 settings made for z
set atom 7 x 4.072500
  1 settings made for x
set atom 7 y 1.357500
  1 settings made for y
set atom 7 z 4.072500
  1 settings made for z
set atom 8 x 1.357500
  1 settings made for x
set atom 8 y 4.072500
  1 settings made for y
set atom 8 z 4.072500
  1 settings made for z
run 0
Per MPI rank memory allocation (min/avg/max) = 2.688 | 2.688 | 2.688 Mbytes
Step Temp E_pair E_mol TotEng Press 
       0            0   -37.042515            0   -37.042515     681.5455 
Loop time of 2.14577e-06 on 1 procs for 0 steps with 8 atoms

0.0% CPU use with 1 MPI tasks x no OpenMP threads

MPI task timing breakdown:
Section |  min time  |  avg time  |  max time  |%varavg| %total
---------------------------------------------------------------
Pair    | 0          | 0          | 0          |   0.0 |  0.00
Neigh   | 0          | 0          | 0          |   0.0 |  0.00
Comm    | 0          | 0          | 0          |   0.0 |  0.00
Output  | 0          | 0          | 0          |   0.0 |  0.00
Modify  | 0          | 0          | 0          |   0.0 |  0.00
Other   |            | 2.146e-06  |            |       |100.00

Nlocal:    8 ave 8 max 8 min
Histogram: 1 0 0 0 0 0 0 0 0 0
Nghost:    86 ave 86 max 86 min
Histogram: 1 0 0 0 0 0 0 0 0 0
Neighs:    0 ave 0 max 0 min
Histogram: 1 0 0 0 0 0 0 0 0 0
FullNghs:  32 ave 32 max 32 min
Histogram: 1 0 0 0 0 0 0 0 0 0

Total # of neighbors = 32
Ave neighs/atom = 4
Neighbor list builds = 0
Dangerous builds = seset atom 1 x 0.000000
  1 settings made for x
set atom 1 y 0.000000
  1 settings made for y
set atom 1 z 0.000000
  1 settings made for z
set atom 2 x 2.715000
  1 settings made for x
set atom 2 y 2.715000
  1 settings made for y
set atom 2 z 0.000000
  1 settings made for z
set atom 3 x 2.715000
  1 settings made for x
set atom 3 y 0.000000
  1 settings made for y
set atom 3 z 2.715000
  1 settings made for z
set atom 4 x 0.000000
  1 settings made for x
set atom 4 y 2.715000
  1 settings made for y
set atom 4 z 2.715000
  1 settings made for z
set atom 5 x 1.357500
  1 settings made for x
set atom 5 y 1.357500
  1 settings made for y
set atom 5 z 1.347500
  1 settings made for z
set atom 6 x 4.072500
  1 settings made for x
set atom 6 y 4.072500
  1 settings made for y
set atom 6 z 1.357500
  1 settings made for z
set atom 7 x 4.072500
  1 settings made for x
set atom 7 y 1.357500
  1 settings made for y
set atom 7 z 4.072500
  1 settings made for z
set atom 8 x 1.357500
  1 settings made for x
set atom 8 y 4.072500
  1 settings made for y
set atom 8 z 4.072500
  1 settings made for z
run 0
Per MPI rank memory allocation (min/avg/max) = 2.688 | 2.688 | 2.688 Mbytes
Step Temp E_pair E_mol TotEng Press 
       0            0   -37.042515            0   -37.042515     681.5455 
Loop time of 2.18116e-06 on 1 procs for 0 steps with 8 atoms

0.0% CPU use with 1 MPI tasks x no OpenMP threads

MPI task timing breakdown:
Section |  min time  |  avg time  |  max time  |%varavg| %total
---------------------------------------------------------------
Pair    | 0          | 0          | 0          |   0.0 |  0.00
Neigh   | 0          | 0          | 0          |   0.0 |  0.00
Comm    | 0          | 0          | 0          |   0.0 |  0.00
Output  | 0          | 0          | 0          |   0.0 |  0.00
Modify  | 0          | 0          | 0          |   0.0 |  0.00
Other   |            | 2.181e-06  |            |       |100.00

Nlocal:    8 ave 8 max 8 min
Histogram: 1 0 0 0 0 0 0 0 0 0
Nghost:    86 ave 86 max 86 min
Histogram: 1 0 0 0 0 0 0 0 0 0
Neighs:    0 ave 0 max 0 min
Histogram: 1 0 0 0 0 0 0 0 0 0
FullNghs:  32 ave 32 max 32 min
Histogram: 1 0 0 0 0 0 0 0 0 0

Total # of neighbors = 32
Ave neighs/atom = 4
Neighbor list builds = 0
Dangerous builds = seset atom 1 x 0.010000
  1 settings made for x
set atom 1 y 0.000000
  1 settings made for y
set atom 1 z 0.000000
  1 settings made for z
set atom 2 x 2.715000
  1 settings made for x
set atom 2 y 2.715000
  1 settings made for y
set atom 2 z 0.000000
  1 settings made for z
set atom 3 x 2.715000
  1 settings made for x
set atom 3 y 0.000000
  1 settings made for y
set atom 3 z 2.715000
  1 settings made for z
set atom 4 x 0.000000
  1 settings made for x
set atom 4 y 2.715000
  1 settings made for y
set atom 4 z 2.715000
  1 settings made for z
set atom 5 x 1.357500
  1 settings made for x
set atom 5 y 1.357500
  1 settings made for y
set atom 5 z 1.357500
  1 settings made for z
set atom 6 x 4.072500
  1 settings made for x
set atom 6 y 4.072500
  1 settings made for y
set atom 6 z 1.357500
  1 settings made for z
set atom 7 x 4.072500
  1 settings made for x
set atom 7 y 1.357500
  1 settings made for y
set atom 7 z 4.072500
  1 settings made for z
set atom 8 x 1.357500
  1 settings made for x
set atom 8 y 4.072500
  1 settings made for y
set atom 8 z 4.072500
  1 settings made for z
run 0
Per MPI rank memory allocation (min/avg/max) = 2.688 | 2.688 | 2.688 Mbytes
Step Temp E_pair E_mol TotEng Press 
       0            0   -37.042515            0   -37.042515     681.5455 
Loop time of 2.17278e-06 on 1 procs for 0 steps with 8 atoms

0.0% CPU use with 1 MPI tasks x no OpenMP threads

MPI task timing breakdown:
Section |  min time  |  avg time  |  max time  |%varavg| %total
---------------------------------------------------------------
Pair    | 0          | 0          | 0          |   0.0 |  0.00
Neigh   | 0          | 0          | 0          |   0.0 |  0.00
Comm    | 0          | 0          | 0          |   0.0 |  0.00
Output  | 0          | 0          | 0          |   0.0 |  0.00
Modify  | 0          | 0          | 0          |   0.0 |  0.00
Other   |            | 2.173e-06  |            |       |100.00

Nlocal:    8 ave 8 max 8 min
Histogram: 1 0 0 0 0 0 0 0 0 0
Nghost:    86 ave 86 max 86 min
Histogram: 1 0 0 0 0 0 0 0 0 0
Neighs:    0 ave 0 max 0 min
Histogram: 1 0 0 0 0 0 0 0 0 0
FullNghs:  32 ave 32 max 32 min
Histogram: 1 0 0 0 0 0 0 0 0 0

Total # of neighbors = 32
Ave neighs/atom = 4
Neighbor list builds = 0
Dangerous builds = seset atom 1 x -0.010000
  1 settings made for x
set atom 1 y 0.000000
  1 settings made for y
set atom 1 z 0.000000
  1 settings made for z
set atom 2 x 2.715000
  1 settings made for x
set atom 2 y 2.715000
  1 settings made for y
set atom 2 z 0.000000
  1 settings made for z
set atom 3 x 2.715000
  1 settings made for x
set atom 3 y 0.000000
  1 settings made for y
set atom 3 z 2.715000
  1 settings made for z
set atom 4 x 0.000000
  1 settings made for x
set atom 4 y 2.715000
  1 settings made for y
set atom 4 z 2.715000
  1 settings made for z
set atom 5 x 1.357500
  1 settings made for x
set atom 5 y 1.357500
  1 settings made for y
set atom 5 z 1.357500
  1 settings made for z
set atom 6 x 4.072500
  1 settings made for x
set atom 6 y 4.072500
  1 settings made for y
set atom 6 z 1.357500
  1 settings made for z
set atom 7 x 4.072500
  1 settings made for x
set atom 7 y 1.357500
  1 settings made for y
set atom 7 z 4.072500
  1 settings made for z
set atom 8 x 1.357500
  1 settings made for x
set atom 8 y 4.072500
  1 settings made for y
set atom 8 z 4.072500
  1 settings made for z
run 0
Per MPI rank memory allocation (min/avg/max) = 2.688 | 2.688 | 2.688 Mbytes
Step Temp E_pair E_mol TotEng Press 
       0            0   -37.042515            0   -37.042515     681.5455 
Loop time of 2.14949e-06 on 1 procs for 0 steps with 8 atoms

0.0% CPU use with 1 MPI tasks x no OpenMP threads

MPI task timing breakdown:
Section |  min time  |  avg time  |  max time  |%varavg| %total
---------------------------------------------------------------
Pair    | 0          | 0          | 0          |   0.0 |  0.00
Neigh   | 0          | 0          | 0          |   0.0 |  0.00
Comm    | 0          | 0          | 0          |   0.0 |  0.00
Output  | 0          | 0          | 0          |   0.0 |  0.00
Modify  | 0          | 0          | 0          |   0.0 |  0.00
Other   |            | 2.149e-06  |            |       |100.00

Nlocal:    8 ave 8 max 8 min
Histogram: 1 0 0 0 0 0 0 0 0 0
Nghost:    86 ave 86 max 86 min
Histogram: 1 0 0 0 0 0 0 0 0 0
Neighs:    0 ave 0 max 0 min
Histogram: 1 0 0 0 0 0 0 0 0 0
FullNghs:  32 ave 32 max 32 min
Histogram: 1 0 0 0 0 0 0 0 0 0

Total # of neighbors = 32
Ave neighs/atom = 4
Neighbor list builds = 0
Dangerous builds =setset atom 1 x 0.000000
  1 settings made for x
set atom 1 y 0.010000
  1 settings made for y
set atom 1 z 0.000000
  1 settings made for z
set atom 2 x 2.715000
  1 settings made for x
set atom 2 y 2.715000
  1 settings made for y
set atom 2 z 0.000000
  1 settings made for z
set atom 3 x 2.715000
  1 settings made for x
set atom 3 y 0.000000
  1 settings made for y
set atom 3 z 2.715000
  1 settings made for z
set atom 4 x 0.000000
  1 settings made for x
set atom 4 y 2.715000
  1 settings made for y
set atom 4 z 2.715000
  1 settings made for z
set atom 5 x 1.357500
  1 settings made for x
set atom 5 y 1.357500
  1 settings made for y
set atom 5 z 1.357500
  1 settings made for z
set atom 6 x 4.072500
  1 settings made for x
set atom 6 y 4.072500
  1 settings made for y
set atom 6 z 1.357500
  1 settings made for z
set atom 7 x 4.072500
  1 settings made for x
set atom 7 y 1.357500
  1 settings made for y
set atom 7 z 4.072500
  1 settings made for z
set atom 8 x 1.357500
  1 settings made for x
set atom 8 y 4.072500
  1 settings made for y
set atom 8 z 4.072500
  1 settings made for z
run 0
Per MPI rank memory allocation (min/avg/max) = 2.688 | 2.688 | 2.688 Mbytes
Step Temp E_pair E_mol TotEng Press 
       0            0   -37.042515            0   -37.042515     681.5455 
Loop time of 2.10851e-06 on 1 procs for 0 steps with 8 atoms

0.0% CPU use with 1 MPI tasks x no OpenMP threads

MPI task timing breakdown:
Section |  min time  |  avg time  |  max time  |%varavg| %total
---------------------------------------------------------------
Pair    | 0          | 0          | 0          |   0.0 |  0.00
Neigh   | 0          | 0          | 0          |   0.0 |  0.00
Comm    | 0          | 0          | 0          |   0.0 |  0.00
Output  | 0          | 0          | 0          |   0.0 |  0.00
Modify  | 0          | 0          | 0          |   0.0 |  0.00
Other   |            | 2.109e-06  |            |       |100.00

Nlocal:    8 ave 8 max 8 min
Histogram: 1 0 0 0 0 0 0 0 0 0
Nghost:    86 ave 86 max 86 min
Histogram: 1 0 0 0 0 0 0 0 0 0
Neighs:    0 ave 0 max 0 min
Histogram: 1 0 0 0 0 0 0 0 0 0
FullNghs:  32 ave 32 max 32 min
Histogram: 1 0 0 0 0 0 0 0 0 0

Total # of neighbors = 32
Ave neighs/atom = 4
Neighbor list builds = 0
Dangerous builds =set atom 1 x 0.000000
  1 settings made for x
set atom 1 y 0.000000
  1 settings made for y
set atom 1 z -0.010000
  1 settings made for z
set atom 2 x 2.715000
  1 settings made for x
set atom 2 y 2.715000
  1 settings made for y
set atom 2 z 0.000000
  1 settings made for z
set atom 3 x 2.715000
  1 settings made for x
set atom 3 y 0.000000
  1 settings made for y
set atom 3 z 2.715000
  1 settings made for z
set atom 4 x 0.000000
  1 settings made for x
set atom 4 y 2.715000
  1 settings made for y
set atom 4 z 2.715000
  1 settings made for z
set atom 5 x 1.357500
  1 settings made for x
set atom 5 y 1.357500
  1 settings made for y
set atom 5 z 1.357500
  1 settings made for z
set atom 6 x 4.072500
  1 settings made for x
set atom 6 y 4.072500
  1 settings made for y
set atom 6 z 1.357500
  1 settings made for z
set atom 7 x 4.072500
  1 settings made for x
set atom 7 y 1.357500
  1 settings made for y
set atom 7 z 4.072500
  1 settings made for z
set atom 8 x 1.357500
  1 settings made for x
set atom 8 y 4.072500
  1 settings made for y
set atom 8 z 4.072500
  1 settings made for z
run 0
Per MPI rank memory allocation (min/avg/max) = 2.688 | 2.688 | 2.688 Mbytes
Step Temp E_pair E_mol TotEng Press 
       0            0   -37.042515            0   -37.042515     681.5455 
Loop time of 3.16836e-06 on 1 procs for 0 steps with 8 atoms

0.0% CPU use with 1 MPI tasks x no OpenMP threads

MPI task timing breakdown:
Section |  min time  |  avg time  |  max time  |%varavg| %total
---------------------------------------------------------------
Pair    | 0          | 0          | 0          |   0.0 |  0.00
Neigh   | 0          | 0          | 0          |   0.0 |  0.00
Comm    | 0          | 0          | 0          |   0.0 |  0.00
Output  | 0          | 0          | 0          |   0.0 |  0.00
Modify  | 0          | 0          | 0          |   0.0 |  0.00
Other   |            | 3.168e-06  |            |       |100.00

Nlocal:    8 ave 8 max 8 min
Histogram: 1 0 0 0 0 0 0 0 0 0
Nghost:    86 ave 86 max 86 min
Histogram: 1 0 0 0 0 0 0 0 0 0
Neighs:    0 ave 0 max 0 min
Histogram: 1 0 0 0 0 0 0 0 0 0
FullNghs:  32 ave 32 max 32 min
Histogram: 1 0 0 0 0 0 0 0 0 0

Total # of neighbors = 32
Ave neighs/atom = 4
Neighbor list builds = 0
Dangerous builds = 0
set atom 1 x 0.000000
  1 settings made for x
set atom 1 y 0.000000
  1 settings made for y
set atom 1 z 0.000000
  1 settings made for z
set atom 2 x 2.715000
  1 settings made for x
set atom 2 y 2.715000
  1 settings made for y
set atom 2 z 0.000000
  1 settings made for z
set atom 3 x 2.715000
  1 settings made for x
set atom 3 y 0.000000
  1 settings made for y
set atom 3 z 2.715000
  1 settings made for z
set atom 4 x 0.000000
  1 settings made for x
set atom 4 y 2.715000
  1 settings made for y
set atom 4 z 2.715000
  1 settings made for z
set atom 5 x 1.367500
  1 settings made for x
set atom 5 y 1.357500
  1 settings made for y
set atom 5 z 1.357500
  1 settings made for z
set atom 6 x 4.072500
  1 settings made for x
set atom 6 y 4.072500
  1 settings made for y
set atom 6 z 1.357500
  1 settings made for z
set atom 7 x 4.072500
  1 settings made for x
set atom 7 y 1.357500
  1 settings made for y
set atom 7 z 4.072500
  1 settings made for z
set atom 8 x 1.357500
  1 settings made for x
set atom 8 y 4.072500
  1 settings made for y
set atom 8 z 4.072500
  1 settings made for z
run 0
Per MPI rank memory allocation (min/avg/max) = 2.688 | 2.688 | 2.688 Mbytes
Step Temp E_pair E_mol TotEng Press 
       0            0   -37.042515            0   -37.042515     681.5455 
Loop time of 2.81353e-06 on 1 procs for 0 steps with 8 atoms

0.0% CPU use with 1 MPI tasks x no OpenMP threads

MPI task timing breakdown:
Section |  min time  |  avg time  |  max time  |%varavg| %total
---------------------------------------------------------------
Pair    | 0          | 0          | 0          |   0.0 |  0.00
Neigh   | 0          | 0          | 0          |   0.0 |  0.00
Comm    | 0          | 0          | 0          |   0.0 |  0.00
Output  | 0          | 0          | 0          |   0.0 |  0.00
Modify  | 0          | 0          | 0          |   0.0 |  0.00
Other   |            | 2.814e-06  |            |       |100.00

Nlocal:    8 ave 8 max 8 min
Histogram: 1 0 0 0 0 0 0 0 0 0
Nghost:    86 ave 86 max 86 min
Histogram: 1 0 0 0 0 0 0 0 0 0
Neighs:    0 ave 0 max 0 min
Histogram: 1 0 0 0 0 0 0 0 0 0
FullNghs:  32 ave 32 max 32 min
Histogram: 1 0 0 0 0 0 0 0 0 0

Total # of neighbors = 32
Ave neighs/atom = 4
Neighbor list builds = 0
Dangerous builds = 0
set atom 1 x 0.000000
  1 settings made for x
set atom 1 y 0.000000
  1 settings made for y
set atom 1 z 0.000000
  1 settings made for z
set atom 2 x 2.715000
  1 settings made for x
set atom 2 y 2.715000
  1 settings made for y
set atom 2 z 0.000000
  1 settings made for z
set atom 3 x 2.715000
  1 settings made for x
set atom 3 y 0.000000
  1 settings made for y
set atom 3 z 2.715000
  1 settings made for z
set atom 4 x 0.000000
  1 settings made for x
set atom 4 y 2.715000
  1 settings made for y
set atom 4 z 2.715000
  1 settings made for z
set atom 5 x 1.347500
  1 settings made for x
set atom 5 y 1.357500
  1 settings made for y
set atom 5 z 1.357500
  1 settings made for z
set atom 6 x 4.072500
  1 settings made for x
set atom 6 y 4.072500
  1 settings made for y
set atom 6 z 1.357500
  1 settings made for z
set atom 7 x 4.072500
  1 settings made for x
set atom 7 y 1.357500
  1 settings made for y
set atom 7 z 4.072500
  1 settings made for z
set atom 8 x 1.357500
  1 settings made for x
set atom 8 y 4.072500
  1 settings made for y
set atom 8 z 4.072500
  1 settings made for z
run 0
Per MPI rank memory allocation (min/avg/max) = 2.688 | 2.688 | 2.688 Mbytes
Step Temp E_pair E_mol TotEng Press 
       0            0   -37.042515            0   -37.042515     681.5455 
Loop time of 2.77162e-06 on 1 procs for 0 steps with 8 atoms

0.0% CPU use with 1 MPI tasks x no OpenMP threads

MPI task timing breakdown:
Section |  min time  |  avg time  |  max time  |%varavg| %total
---------------------------------------------------------------
Pair    | 0          | 0          | 0          |   0.0 |  0.00
Neigh   | 0          | 0          | 0          |   0.0 |  0.00
Comm    | 0          | 0          | 0          |   0.0 |  0.00
Output  | 0          | 0          | 0          |   0.0 |  0.00
Modify  | 0          | 0          | 0          |   0.0 |  0.00
Other   |            | 2.772e-06  |            |       |100.00

Nlocal:    8 ave 8 max 8 min
Histogram: 1 0 0 0 0 0 0 0 0 0
Nghost:    86 ave 86 max 86 min
Histogram: 1 0 0 0 0 0 0 0 0 0
Neighs:    0 ave 0 max 0 min
Histogram: 1 0 0 0 0 0 0 0 0 0
FullNghs:  32 ave 32 max 32 min
Histogram: 1 0 0 0 0 0 0 0 0 0

Total # of neighbors = 32
Ave neighs/atom = 4
Neighbor list builds = 0
Dangerous builds = 0
set atom 1 x 0.000000
  1 settings made for x
set atom 1 y 0.000000
  1 settings made for y
set atom 1 z 0.000000
  1 settings made for z
set atom 2 x 2.715000
  1 settings made for x
set atom 2 y 2.715000
  1 settings made for y
set atom 2 z 0.000000
  1 settings made for z
set atom 3 x 2.715000
  1 settings made for x
set atom 3 y 0.000000
  1 settings made for y
set atom 3 z 2.715000
  1 settings made for z
set atom 4 x 0.000000
  1 settings made for x
set atom 4 y 2.715000
  1 settings made for y
set atom 4 z 2.715000
  1 settings made for z
set atom 5 x 1.357500
  1 settings made for x
set atom 5 y 1.367500
  1 settings made for y
set atom 5 z 1.357500
  1 settings made for z
set atom 6 x 4.072500
  1 settings made for x
set atom 6 y 4.072500
  1 settings made for y
set atom 6 z 1.357500
  1 settings made for z
set atom 7 x 4.072500
  1 settings made for x
set atom 7 y 1.357500
  1 settings made for y
set atom 7 z 4.072500
  1 settings made for z
set atom 8 x 1.357500
  1 settings made for x
set atom 8 y 4.072500
  1 settings made for y
set atom 8 z 4.072500
  1 settings made for z
run 0
Per MPI rank memory allocation (min/avg/max) = 2.688 | 2.688 | 2.688 Mbytes
Step Temp E_pair E_mol TotEng Press 
       0            0   -37.042515            0   -37.042515     681.5455 
Loop time of 2.79024e-06 on 1 procs for 0 steps with 8 atoms

[...]
set atom 5 y 1.357500
  1 settings made for y
set atom 5 z 1.357500
  1 settings made for z
set atom 6 x 4.072500
  1 settings made for x
set atom 6 y 4.072500
  1 settings made for y
set atom 6 z 1.357500
  1 settings made for z
set atom 7 x 4.072500
  1 settings made for x
set atom 7 y 1.357500
  1 settings made for y
set atom 7 z 4.072500
  1 settings made for z
set atom 8 x 1.357500
  1 settings made for x
set atom 8 y 4.072500
  1 settings made for y
set atom 8 z 4.072500
  1 settings made for z
run 0
Per MPI rank memory allocation (min/avg/max) = 2.688 | 2.688 | 2.688 Mbytes
Step Temp E_pair E_mol TotEng Press 
       0            0   -37.042515            0   -37.042515     681.5455 
Loop time of 2.17184e-06 on 1 procs for 0 steps with 8 atoms

0.0% CPU use with 1 MPI tasks x no OpenMP threads

MPI task timing breakdown:
Section |  min time  |  avg time  |  max time  |%varavg| %total
---------------------------------------------------------------
Pair    | 0          | 0          | 0          |   0.0 |  0.00
Neigh   | 0          | 0          | 0          |   0.0 |  0.00
Comm    | 0          | 0          | 0          |   0.0 |  0.00
Output  | 0          | 0          | 0          |   0.0 |  0.00
Modify  | 0          | 0          | 0          |   0.0 |  0.00
Other   |            | 2.172e-06  |            |       |100.00

Nlocal:    8 ave 8 max 8 min
Histogram: 1 0 0 0 0 0 0 0 0 0
Nghost:    86 ave 86 max 86 min
Histogram: 1 0 0 0 0 0 0 0 0 0
Neighs:    0 ave 0 max 0 min
Histogram: 1 0 0 0 0 0 0 0 0 0
FullNghs:  32 ave 32 max 32 min
Histogram: 1 0 0 0 0 0 0 0 0 0

Total # of neighbors = 32
Ave neighs/atomset atom 1 x 0.000000
  1 settings made for x
set atom 1 y 0.000000
  1 settings made for y
set atom 1 z 0.000000
  1 settings made for z
set atom 2 x 2.715000
  1 settings made for x
set atom 2 y 2.715000
  1 settings made for y
set atom 2 z 0.000000
  1 settings made for z
set atom 3 x 2.715000
  1 settings made for x
set atom 3 y 0.000000
  1 settings made for y
set atom 3 z 2.715000
  1 settings made for z
set atom 4 x 0.000000
  1 settings made for x
set atom 4 y 2.715000
  1 settings made for y
set atom 4 z 2.715000
  1 settings made for z
set atom 5 x 1.357500
  1 settings made for x
set atom 5 y 1.357500
  1 settings made for y
set atom 5 z 1.357500
  1 settings made for z
set atom 6 x 4.072500
  1 settings made for x
set atom 6 y 4.072500
  1 settings made for y
set atom 6 z 1.357500
  1 settings made for z
set atom 7 x 4.072500
  1 settings made for x
set atom 7 y 1.357500
  1 settings made for y
set atom 7 z 4.082500
  1 settings made for z
set atom 8 x 1.357500
  1 settings made for x
set atom 8 y 4.072500
  1 settings made for y
set atom 8 z 4.072500
  1 settings made for z
run 0
Per MPI rank memory allocation (min/avg/max) = 2.688 | 2.688 | 2.688 Mbytes
Step Temp E_pair E_mol TotEng Press 
       0            0   -37.042515            0   -37.042515     681.5455 
Loop time of 2.91504e-06 on 1 procs for 0 steps with 8 atoms

0.0% CPU use with 1 MPI tasks x no OpenMP threads

MPI task timing breakdown:
Section |  min time  |  avg time  |  max time  |%varavg| %total
---------------------------------------------------------------
Pair    | 0          | 0          | 0          |   0.0 |  0.00
Neigh   | 0          | 0          | 0          |   0.0 |  0.00
Comm    | 0          | 0          | 0          |   0.0 |  0.00
Output  | 0          | 0          | 0          |   0.0 |  0.00
Modify  | 0          | 0          | 0          |   0.0 |  0.00
Other   |            | 2.915e-06  |            |       |100.00

Nlocal:    8 ave 8 max 8 min
Histogram: 1 0 0 0 0 0 0 0 0 0
Nghost:    86 ave 86 max 86 min
Histogram: 1 0 0 0 0 0 0 0 0 0
Neighs:    0 ave 0 max 0 min
Histogram: 1 0 0 0 0 0 0 0 0 0
FullNghs:  32 ave 32 max 32 min
Histogram: 1 0 0 0 0 0 0 0 0 0

Total # of neighbors = 32
Ave neighs/atom = 4
Neighbor list builds = 0
Dangerous builds = 0
set atom 1 x 0.000000
  1 settings made for x
set aset atom 1 x 0.000000
  1 settings made for x
set atom 1 y 0.000000
  1 settings made for y
set atom 1 z 0.000000
  1 settings made for z
set atom 2 x 2.715000
  1 settings made for x
set atom 2 y 2.715000
  1 settings made for y
set atom 2 z 0.000000
  1 settings made for z
set atom 3 x 2.715000
  1 settings made for x
set atom 3 y 0.000000
  1 settings made for y
set atom 3 z 2.715000
  1 settings made for z
set atom 4 x 0.000000
  1 settings made for x
set atom 4 y 2.705000
  1 settings made for y
set atom 4 z 2.715000
  1 settings made for z
set atom 5 x 1.357500
  1 settings made for x
set atom 5 y 1.357500
  1 settings made for y
set atom 5 z 1.357500
  1 settings made for z
set atom 6 x 4.072500
  1 settings made for x
set atom 6 y 4.072500
  1 settings made for y
set atom 6 z 1.357500
  1 settings made for z
set atom 7 x 4.072500
  1 settings made for x
set atom 7 y 1.357500
  1 settings made for y
set atom 7 z 4.072500
  1 settings made for z
set atom 8 x 1.357500
  1 settings made for x
set atom 8 y 4.072500
  1 settings made for y
set atom 8 z 4.072500
  1 settings made for z
run 0
Per MPI rank memory allocation (min/avg/max) = 2.688 | 2.688 | 2.688 Mbytes
Step Temp E_pair E_mol TotEng Press 
       0            0   -37.042515            0   -37.042515     681.5455 
Loop time of 2.16346e-06 on 1 procs for 0 steps with 8 atoms

0.0% CPU use with 1 MPI tasks x no OpenMP threads

MPI task timing breakdown:
Section |  min time  |  avg time  |  max time  |%varavg| %total
---------------------------------------------------------------
Pair    | 0          | 0          | 0          |   0.0 |  0.00
Neigh   | 0          | 0          | 0          |   0.0 |  0.00
Comm    | 0          | 0          | 0          |   0.0 |  0.00
Output  | 0          | 0          | 0          |   0.0 |  0.00
Modify  | 0          | 0          | 0          |   0.0 |  0.00
Other   |            | 2.163e-06  |            |       |100.00

Nlocal:    8 ave 8 max 8 min
Histogram: 1 0 0 0 0 0 0 0 0 0
Nghost:    86 ave 86 max 86 min
Histogram: 1 0 0 0 0 0 0 0 0 0
Neighs:    0 ave 0 max 0 min
Histogram: 1 0 0 0 0 0 0 0 0 0
FullNghs:  32 ave 32 max 32 min
Histogram: 1 0 0 0 0 0 0 0 0 0

Total # of neighbors = 32
Ave neighs/atoset atom 1 x 0.000000
  1 settings made for x
set atom 1 y 0.000000
  1 settings made for y
set atom 1 z 0.000000
  1 settings made for z
set atom 2 x 2.715000
  1 settings made for x
set atom 2 y 2.715000
  1 settings made for y
set atom 2 z 0.000000
  1 settings made for z
set atom 3 x 2.715000
  1 settings made for x
set atom 3 y 0.000000
  1 settings made for y
set atom 3 z 2.715000
  1 settings made for z
set atom 4 x 0.000000
  1 settings made for x
set atom 4 y 2.715000
  1 settings made for y
set atom 4 z 2.715000
  1 settings made for z
set atom 5 x 1.357500
  1 settings made for x
set atom 5 y 1.357500
  1 settings made for y
set atom 5 z 1.357500
  1 settings made for z
set atom 6 x 4.072500
  1 settings made for x
set atom 6 y 4.072500
  1 settings made for y
set atom 6 z 1.357500
  1 settings made for z
set atom 7 x 4.072500
  1 settings made for x
set atom 7 y 1.357500
  1 settings made for y
set atom 7 z 4.072500
  1 settings made for z
set atom 8 x 1.367500
  1 settings made for x
set atom 8 y 4.072500
  1 settings made for y
set atom 8 z 4.072500
  1 settings made for z
run 0
Per MPI rank memory allocation (min/avg/max) = 2.688 | 2.688 | 2.688 Mbytes
Step Temp E_pair E_mol TotEng Press 
       0            0   -37.042515            0   -37.042515     681.5455 
Loop time of 2.88337e-06 on 1 procs for 0 steps with 8 atoms

0.0% CPU use with 1 MPI tasks x no OpenMP threads

MPI task timing breakdown:
Section |  min time  |  avg time  |  max time  |%varavg| %total
---------------------------------------------------------------
Pair    | 0          | 0          | 0          |   0.0 |  0.00
Neigh   | 0          | 0          | 0          |   0.0 |  0.00
Comm    | 0          | 0          | 0          |   0.0 |  0.00
Output  | 0          | 0          | 0          |   0.0 |  0.00
Modify  | 0          | 0          | 0          |   0.0 |  0.00
Other   |            | 2.883e-06  |            |       |100.00

Nlocal:    8 ave 8 max 8 min
Histogram: 1 0 0 0 0 0 0 0 0 0
Nghost:    86 ave 86 max 86 min
Histogram: 1 0 0 0 0 0 0 0 0 0
Neighs:    0 ave 0 max 0 min
Histogram: 1 0 0 0 0 0 0 0 0 0
FullNghs:  32 ave 32 max 32 min
Histogram: 1 0 0 0 0 0 0 0 0 0

Total # of neighbors = 32
Ave neighs/atom = 4
Neighbor list builds = 0
Dangerous builds = 0
set atom 1 x 0.000000
  1 settings made for x
set atom 1 y 0.000000
  1 settings made for y
set atom 1 z 0.000000
  1 settings made for z
set atom 2 x 2.715000
  1 settings made for x
set atom 2 y 2.715000
  1 settings made for y
set atom 2 z 0.000000
  1 settings made for z
set atom 3 x 2.715000
  1 settings made for x
set atom 3 y 0.000000
  1 settings made for y
set atom 3 z 2.715000
  1 settings made for z
set atom 4 x 0.000000
  1 settings made for x
set atom 4 y 2.715000
  1 settings made for y
set atom 4 z 2.715000
  1 settings made for z
set atom 5 x 1.357500
  1 settings made for x
set atom 5 y 1.357500
  1 settings made for y
set atom 5 z 1.357500
  1 settings made for z
set atom 6 x 4.072500
  1 settings made for x
set atom 6 y 4.072500
  1 settings made for y
set atom 6 z 1.357500
  1 settings made for z
set atom 7 x 4.072500
  1 settings made for x
set atom 7 y 1.357500
  1 settings made for y
set atom 7 z 4.072500
  1 settings made for z
set atom 8 x 1.347500
  1 settings made for x
set atom 8 y 4.072500
  1 settings made for y
set atom 8 z 4.072500
  1 settings made for z
run 0
Per MPI rank memory allocation (min/avg/max) = 2.688 | 2.688 | 2.688 Mbytes
Step Temp E_pair E_mol TotEng Press 
       0            0   -37.042515            0   -37.042515     681.5455 
Loop time of 2.95229e-06 on 1 procs for 0 steps with 8 atoms

0.0% CPU use with 1 MPI tasks x no OpenMP threads

MPI task timing breakdown:
Section |  min time  |  avg time  |  max time  |%varavg| %total
---------------------------------------------------------------
Pair    | 0          | 0          | 0          |   0.0 |  0.00
Neigh   | 0          | 0          | 0          |   0.0 |  0.00
Comm    | 0          | 0          | 0          |   0.0 |  0.00
Output  | 0          | 0          | 0          |   0.0 |  0.00
Modify  | 0          | 0          | 0          |   0.0 |  0.00
Other   |            | 2.952e-06  |            |       |100.00

Nlocal:    8 ave 8 max 8 min
Histogram: 1 0 0 0 0 0 0 0 0 0
Nghost:    86 ave 86 max 86 min
Histogram: 1 0 0 0 0 0 0 0 0 0
Neighs:    0 ave 0 max 0 min
Histogram: 1 0 0 0 0 0 0 0 0 0
FullNghs:  32 ave 32 max 32 min
Histogram: 1 0 0 0 0 0 0 0 0 0

Total # of neighbors = 32
Ave neighs/atom = 4
Neighbor list builds = 0
Dangerous builds = 0
set atom 1 x 0.000000
  1 settings made for x
set atom 1 y 0.000000
  1 settings made for y
set atom 1 z 0.000000
  1 settings made for z
set atom 2 x 2.715000
  1 settings made for x
set atom 2 y 2.715000
  1 settings made for y
set atom 2 z 0.000000
  1 settings made for z
set atom 3 x 2.715000
  1 settings made for x
set atom 3 y 0.000000
  1 settings made for y
set atom 3 z 2.715000
  1 settings made for z
set atom 4 x 0.000000
  1 settings made for x
set atom 4 y 2.715000
  1 settings made for y
set atom 4 z 2.715000
  1 settings made for z
set atom 5 x 1.357500
  1 settings made for x
set atom 5 y 1.357500
  1 settings made for y
set atom 5 z 1.357500
  1 settings made for z
set atom 6 x 4.072500
  1 settings made for x
set atom 6 y 4.072500
  1 settings made for y
set atom 6 z 1.357500
  1 settings made for z
set atom 7 x 4.072500
  1 settings made for x
set atom 7 y 1.357500
  1 settings made for y
set atom 7 z 4.072500
  1 settings made for z
set atom 8 x 1.357500
  1 settings made for x
set atom 8 y 4.082500
  1 settings made for y
set atom 8 z 4.072500
  1 settings made for z
run 0
Per MPI rank memory allocation (min/avg/max) = 2.688 | 2.688 | 2.688 Mbytes
Step Temp E_pair E_mol TotEng Press 
       0            0   -37.042515            0   -37.042515     681.5455 
Loop time of 2.76044e-06 on 1 procs for 0 steps with 8 atoms

0.0% CPU use with 1 MPI tasks x no OpenMP threads

MPI task timing breakdown:
Section |  min time  |  avg time  |  max time  |%varavg| %total
---------------------------------------------------------------
Pair    | 0          | 0          | 0          |   0.0 |  0.00
Neigh   | 0          | 0          | 0          |   0.0 |  0.00
Comm    | 0          | 0          | 0          |   0.0 |  0.00
Output  | 0          | 0          | 0          |   0.0 |  0.00
Modify  | 0          | 0          | 0          |   0.0 |  0.00
Other   |            | 2.76e-06   |            |       |100.00

Nlocal:    8 ave 8 max 8 min
Histogram: 1 0 0 0 0 0 0 0 0 0
Nghost:    86 ave 86 max 86 min
Histogram: 1 0 0 0 0 0 0 0 0 0
Neighs:    0 ave 0 max 0 min
Histogram: 1 0 0 0 0 0 0 0 0 0
FullNghs:  32 ave 32 max 32 min
Histogram: 1 0 0 0 0 0 0 0 0 0

Total # of neighbors = 32
Ave neighs/atom = 4
Neighbor list builds = 0
Dangerous builds = 0
set atom 1 x 0.000000
  1 settings made for x
set atom 1 y 0.000000
  1 settings made for y
set atom 1 z 0.000000
  1 settings made for z
set atom 2 x 2.715000
  1 settings made for x
set atom 2 y 2.715000
  1 settings made for y
set atom 2 z 0.000000
  1 settings made for z
set atom 3 x 2.715000
  1 settings made for x
set atom 3 y 0.000000
  1 settings made for y
set atom 3 z 2.715000
  1 settings made for z
set atom 4 x 0.000000
  1 settings made for x
set atom 4 y 2.715000
  1 settings made for y
set atom 4 z 2.715000
  1 settings made for z
set atom 5 x 1.357500
  1 settings made for x
set atom 5 y 1.357500
  1 settings made for y
set atom 5 z 1.357500
  1 settings made for z
set atom 6 x 4.072500
  1 settings made for x
set atom 6 y 4.072500
  1 settings made for y
set atom 6 z 1.357500
  1 settings made for z
set atom 7 x 4.072500
  1 settings made for x
set atom 7 y 1.357500
  1 settings made for y
set atom 7 z 4.072500
  1 settings made for z
set atom 8 x 1.357500
  1 settings made for x
set atom 8 y 4.062500
  1 settings made for y
set atom 8 z 4.072500
  1 settings made for z
run 0
Per MPI rank memory allocation (min/avg/max) = 2.688 | 2.688 | 2.688 Mbytes
Step Temp E_pair E_mol TotEng Press 
       0            0   -37.042515            0   -37.042515     681.5455 
Loop time of 2.75392e-06 on 1 procs for 0 steps with 8 atoms

0.0% CPU use with 1 MPI tasks x no OpenMP threads

MPI task timing breakdown:
Section |  min time  |  avg time  |  max time  |%varavg| %total
---------------------------------------------------------------
Pair    | 0          | 0          | 0          |   0.0 |  0.00
Neigh   | 0          | 0          | 0          |   0.0 |  0.00
Comm    | 0          | 0          | 0          |   0.0 |  0.00
Output  | 0          | 0          | 0          |   0.0 |  0.00
Modify  | 0          | 0          | 0          |   0.0 |  0.00
Other   |            | 2.754e-06  |            |       |100.00

Nlocal:    8 ave 8 max 8 min
Histogram: 1 0 0 0 0 0 0 0 0 0
Nghost:    86 ave 86 max 86 min
Histogram: 1 0 0 0 0 0 0 0 0 0
Neighs:    0 ave 0 max 0 min
Histogram: 1 0 0 0 0 0 0 0 0 0
FullNghs:  32 ave 32 max 32 min
Histogram: 1 0 0 0 0 0 0 0 0 0

Total # of neighbors = 32
Ave neighs/atom = 4
Neighbor list builds = 0
Dangerous builds = 0
set atom 1 x 0.000000
  1 settings made for x
set atom 1 y 0.000000
  1 settings made for y
set atom 1 z 0.000000
  1 settings made for z
set atom 2 x 2.715000
  1 settings made for x
set atom 2 y 2.715000
  1 settings made for y
set atom 2 z 0.000000
  1 settings made for z
set atom 3 x 2.715000
  1 settings made for x
set atom 3 y 0.000000
  1 settings made for y
set atom 3 z 2.715000
  1 settings made for z
set atom 4 x 0.000000
  1 settings made for x
set atom 4 y 2.715000
  1 settings made for y
set atom 4 z 2.715000
  1 settings made for z
set atom 5 x 1.357500
  1 settings made for x
set atom 5 y 1.357500
  1 settings made for y
set atom 5 z 1.357500
  1 settings made for z
set atom 6 x 4.072500
  1 settings made for x
set atom 6 y 4.072500
  1 settings made for y
set atom 6 z 1.357500
  1 settings made for z
set atom 7 x 4.072500
  1 settings made for x
set atom 7 y 1.357500
  1 settings made for y
set atom 7 z 4.072500
  1 settings made for z
set atom 8 x 1.357500
  1 settings made for x
set atom 8 y 4.072500
  1 settings made for y
set atom 8 z 4.082500
  1 settings made for z
run 0
Per MPI rank memory allocation (min/avg/max) = 2.688 | 2.688 | 2.688 Mbytes
Step Temp E_pair E_mol TotEng Press 
       0            0   -37.042515            0   -37.042515     681.5455 
Loop time of 3.00258e-06 on 1 procs for 0 steps with 8 atoms

0.0% CPU use with 1 MPI tasks x no OpenMP threads

MPI task timing breakdown:
Section |  min time  |  avg time  |  max time  |%varavg| %total
---------------------------------------------------------------
Pair    | 0          | 0          | 0          |   0.0 |  0.00
Neigh   | 0          | 0          | 0          |   0.0 |  0.00
Comm    | 0          | 0          | 0          |   0.0 |  0.00
Output  | 0          | 0          | 0          |   0.0 |  0.00
Modify  | 0          | 0          | 0          |   0.0 |  0.00
Other   |            | 3.003e-06  |            |       |100.00

Nlocal:    8 ave 8 max 8 min
Histogram: 1 0 0 0 0 0 0 0 0 0
Nghost:    86 ave 86 max 86 min
Histogram: 1 0 0 0 0 0 0 0 0 0
Neighs:    0 ave 0 max 0 min
Histogram: 1 0 0 0 0 0 0 0 0 0
FullNghs:  32 ave 32 max 32 min
Histogram: 1 0 0 0 0 0 0 0 0 0

Total # of neighbors = 32
Ave neighs/atom = 4
Neighbor list builds = 0
Dangerous builds = 0
set atom 1 x 0.000000
  1 settings made for x
set atom 1 y 0.000000
  1 settings made for y
set atom 1 z 0.000000
  1 settings made for z
set atom 2 x 2.715000
  1 settings made for x
set atom 2 y 2.715000
  1 settings made for y
set atom 2 z 0.000000
  1 settings made for z
set atom 3 x 2.715000
  1 settings made for x
set atom 3 y 0.000000
  1 settings made for y
set atom 3 z 2.715000
  1 settings made for z
set atom 4 x 0.000000
  1 settings made for x
set atom 4 y 2.715000
  1 settings made for y
set atom 4 z 2.715000
  1 settings made for z
set atom 5 x 1.357500
  1 settings made for x
set atom 5 y 1.357500
  1 settings made for y
set atom 5 z 1.357500
  1 settings made for z
set atom 6 x 4.072500
  1 settings made for x
set atom 6 y 4.072500
  1 settings made for y
set atom 6 z 1.357500
  1 settings made for z
set atom 7 x 4.072500
  1 settings made for x
set atom 7 y 1.357500
  1 settings made for y
set atom 7 z 4.072500
  1 settings made for z
set atom 8 x 1.357500
  1 settings made for x
set atom 8 y 4.072500
  1 settings made for y
set atom 8 z 4.062500
  1 settings made for z
run 0
Per MPI rank memory allocation (min/avg/max) = 2.688 | 2.688 | 2.688 Mbytes
Step Temp E_pair E_mol TotEng Press 
       0            0   -37.042515            0   -37.042515     681.5455 
Loop time of 2.78279e-06 on 1 procs for 0 steps with 8 atoms

0.0% CPU use with 1 MPI tasks x no OpenMP threads

MPI task timing breakdown:
Section |  min time  |  avg time  |  max time  |%varavg| %total
---------------------------------------------------------------
Pair    | 0          | 0          | 0          |   0.0 |  0.00
Neigh   | 0          | 0          | 0          |   0.0 |  0.00
Comm    | 0          | 0          | 0          |   0.0 |  0.00
Output  | 0          | 0          | 0          |   0.0 |  0.00
Modify  | 0          | 0          | 0          |   0.0 |  0.00
Other   |            | 2.783e-06  |            |       |100.00

Nlocal:    8 ave 8 max 8 min
Histogram: 1 0 0 0 0 0 0 0 0 0
Nghost:    86 ave 86 max 86 min
Histogram: 1 0 0 0 0 0 0 0 0 0
Neighs:    0 ave 0 max 0 min
Histogram: 1 0 0 0 0 0 0 0 0 0
FullNghs:  32 ave 32 max 32 min
Histogram: 1 0 0 0 0 0 0 0 0 0

Total # of neighbors = 32
Ave neighs/atom = 4
Neighbor list builds = 0
Dangerous builds = 0
Total wall time: 0:00:00
= 0
Dangerous builds = 0
Total wall time: 0:00:00
