LAMMPS DATA file generated by structure.cpp

3200 atoms

2 atom types

0.0 10.862000 xlo xhi
0.0 10.862000 ylo yhi
0.0 543.100000 zlo zhi

Masses

1 28.0855
2 72.64

Atoms

1 1 6.775885346579774 1.382939430662457 1.389823797670870
2 1 9.501316671039394 4.076138233601032 1.401774016005851
3 1 9.526615367300023 1.378279542214564 4.134110307141716
4 1 1.353869811319014 1.356411766923487 1.412041350352293
5 1 4.071171454936706 4.083011910290185 1.411746485924120
6 1 6.785261988889536 6.782923068352046 1.407724887070601
7 1 9.524445441648302 9.482354025042820 1.387432739329546
8 1 4.084843258119498 1.341419048395595 4.094149305678629
9 1 6.787857815747029 4.078274992841788 4.115781205267320
10 1 9.520831741532300 6.766036290037078 4.093508445013149
11 1 6.793363560883126 1.357746121850591 6.785455766329159
12 1 9.505678860355891 4.078491635399036 6.837232198217409
13 1 9.524066746264340 1.373203764058778 9.568524402179650
14 1 1.361337004891706 6.788644096080810 1.401262206265180
15 1 4.065282366332973 9.493714684546587 1.407276416295828
16 1 1.336309929776045 4.094408098717935 4.093823704595421
17 1 4.068445632987911 6.788929177141279 4.116139937601722
18 1 6.752383078746115 9.496489559623523 4.113940621572227
19 1 1.336449913770336 1.342540680432440 6.851428693066224
20 1 4.065046697132164 4.118183579427270 6.825074487792249
21 1 6.771669529296481 6.767014410402370 6.858516359653374
22 1 9.544897627117727 9.497168338437291 6.829883514417662
23 2 4.049977656477443 1.337022529946817 9.569631717938508
24 1 6.809667842790200 4.091235463377592 9.568264715560108
25 1 9.512926397931381 6.795405030508884 9.544265267568020
26 1 6.782310667196118 1.350578974859800 12.270780220107326
27 2 9.513481506310136 4.067583393540322 12.268789819301317
28 1 9.476923702291238 1.370424153761009 14.971489283528401
29 1 1.360485104267486 9.501402858176947 4.114083562965576
30 1 1.356045453709094 6.789653132151772 6.827724166621110
31 1 4.067487199045991 9.495344617866655 6.830645569608091
32 1 1.357894331009364 4.080579601329534 9.545428644469565
33 1 4.059481203919176 6.789535417566301 9.549947985520665
34 1 6.770982877384555 9.482769433057591 9.561071393113073
35 1 1.356978291546409 1.351307953894030 12.280651264601387
36 1 4.063958567476516 4.071742964296162 12.274299963128621
37 2 6.775387366997595 6.795052995778486 12.267380144785788
38 1 9.506437033588218 9.514252906582652 12.263727608685436
39 1 4.077772217953787 1.353415263355235 14.981362414346409
40 1 6.770271866403869 4.061732228573071 14.987743000173303
41 2 9.505254601550726 6.797688381727509 14.992509614473610
42 1 6.788391812180352 1.355268641433466 17.707409007918706
43 1 9.470616705171313 4.090016922965111 17.685392375324987
44 1 9.473119734350647 1.328798576404361 20.448376478259018
45 1 1.351935293953086 9.493236832631522 9.561651802618645
46 1 1.368108520503065 6.788289174449398 12.265603488641410
47 1 4.064876612440337 9.498486074413188 12.277176740525887
48 1 1.369078139084260 4.072060850230577 14.993728948990071
49 1 4.069608749692438 6.782487887005726 14.992096973791613
50 1 6.784726703056372 9.514390491597588 14.989037972894483
51 1 1.377352157690545 1.369435964208354 17.682462489042916
52 1 4.103270079522311 4.056283030734511 17.684567340010336
53 1 6.779812705788090 6.786615266291826 17.708511591376457
54 1 9.480258763386169 9.490779187994933 17.730189866584393
55 1 4.101716027503198 1.377959679174840 20.439566050786052
56 1 6.792554120962635 4.076126486254907 20.426377211474133
57 1 9.491604694662497 6.788704717768370 20.424932590351506
58 1 6.795479384614320 1.364097659530157 23.148704273198717
59 1 9.493657426490882 4.069590674273466 23.148282838853863
60 1 9.503931799481217 1.358132135043070 25.849536844186286
61 1 1.380352318260315 9.487466540031122 14.962421164070642
62 1 1.343128303549206 6.815123660303954 17.690982527686383
63 1 4.097670642054089 9.482876068553336 17.687056998400124
64 2 1.355698694881697 4.076157052155760 20.466068565635929
65 1 4.104908170271327 6.811476613740060 20.446343978239650
66 1 6.792030955560032 9.502519645605828 20.426219108455651
67 1 1.348406841163181 1.352233169337111 23.144420923287097
68 1 4.086484775440231 4.072067164583332 23.146640020399889
69 1 6.803679990062096 6.782974907501819 23.138326532157372
70 1 9.499418289977374 9.499450886866851 23.147748759431348
71 1 4.073426647040954 1.362216619549375 25.853285218941480
72 1 6.797368980051962 4.068703291173757 25.853544476849432
73 1 9.500556940634171 6.784714452680866 25.851499509482814
74 1 6.767998023175314 1.378053786107661 28.551136955658123
75 1 9.523534105894845 4.050400136686336 28.550113215042412
76 1 9.521097131833306 1.378040072334324 31.305483284788650
77 1 1.331511897136544 9.484490893718453 20.439973179280845
78 1 1.345856024734784 6.791589515415577 23.149764183683615
79 2 4.073698475651936 9.512201654754849 23.138797492480727
80 1 1.354174247759028 4.061331088287615 25.843848720227228
81 2 4.074108640199254 6.783276756326170 25.854829971656439
82 1 6.795541012489101 9.514448048647276 25.853328864582625
83 1 1.359896836187768 1.362642633103126 28.562739772342081
84 1 4.091193705270140 4.044618362552518 28.556272316335715
85 1 6.773632526201959 6.807839062802302 28.555667143177583
86 1 9.494793043377978 9.508594364659498 28.529956118019680
87 1 4.074482852315427 1.364082815785495 31.295231428718299
88 1 6.765047407683180 4.053401802260809 31.309166306910875
89 1 9.498867872898503 6.779364642377634 31.328284963085039
90 1 6.783825790171328 1.356372264799179 33.974435881976433
91 1 9.521686027334075 4.056892771507079 33.999014592701670
92 1 9.510020103226760 1.392793575968747 36.727257317073864
93 1 1.347675342973499 9.511684656018016 25.857935803760686
94 1 1.355645053678802 6.776827309922623 28.529759146954383
95 1 4.078288662303228 9.514547692729270 28.566268880966017
96 1 1.341945841359455 4.053208499894744 31.306292572348184
97 1 4.093314842064982 6.804916463204856 31.301578233735459
98 1 6.769040937278052 9.487649205488648 31.306078536757642
99 1 1.367029938712163 1.362617712785957 34.025443070137293
100 1 4.047849019459225 4.096143389279063 33.996075064540868
101 1 6.767150166115840 6.805913876474301 34.001344178708756
102 1 9.525067516245663 9.483452812080881 33.997680821499785
103 1 4.050992943782492 1.337499627050986 36.751707616532151
104 1 6.785761451608415 4.076940965305551 36.770976593139288
105 1 9.529169423001647 6.811736992157268 36.748626014230794
106 1 6.808401720070860 1.335248232158953 39.431186142273404
107 1 9.530151854761209 4.058612529711667 39.436157668026766
108 1 9.493534609147304 1.365402069053378 42.163626570384352
109 2 1.384304127576029 9.527691765006706 31.306643035465193
110 1 1.363017247449458 6.783159209261660 34.012805563001599
111 1 4.078863363278055 9.509687891582674 34.022021922706301
112 1 1.361943025710715 4.077699315533057 36.727855620077541
113 1 4.068891709203400 6.788914631660481 36.729072487689336
114 1 6.769509167384851 9.485041629318733 36.745671020938651
115 1 1.378949012491498 1.380856696015111 39.472551257862264
116 1 4.054193422081413 4.090756892740493 39.431493329909294
117 1 6.772902257774992 6.807358101705654 39.434042140439686
118 1 9.483570621079648 9.487267180744995 39.467046222691152
119 1 4.066114049883011 1.340519234355654 42.190225514972838
120 1 6.796360424416211 4.068068962914769 42.205176755910038
121 1 9.522265639854430 6.804930257915816 42.194549482331610
122 1 6.790351902400549 1.355926881979143 44.886975097615377
123 1 9.502072745750340 4.080368088970364 44.886408267250467
124 1 9.498339641559374 1.359625495795949 47.592594203269606
125 1 1.379548500001492 9.484325983604817 36.715202417579597
126 1 1.356123808989426 6.787687423593253 39.440718082596575
127 1 4.072949527427857 9.506784492227803 39.446475260596074
128 1 1.352360552476833 4.078475722759682 42.171334275675342
129 2 4.078403728474518 6.785979755736882 42.172034015661168
130 1 6.792656801083830 9.509881307037077 42.175143018369795
131 2 1.355078673781011 1.365179450473788 44.890896628285908
132 1 4.076291552412356 4.073871278395436 44.892796732187577
133 1 6.796752218901254 6.793351596112140 44.891356895051061
134 1 9.493857147123952 9.502587533819380 44.892710723354874
135 1 4.080251392040841 1.359379548416690 47.593542161838769
136 1 6.789956968702441 4.073796462856947 47.586671785240533
137 1 9.504034603604969 6.790606921287522 47.591749181627215
138 1 6.789768160418722 1.359503916911763 50.291125313562361
139 1 9.504978994520146 4.067826090721542 50.287710456623763
140 1 9.505521204171611 1.359226232870063 52.998922820393673
141 2 1.353243010827241 9.503729943176747 42.167758291151102
142 1 1.354442574739925 6.783616949678642 44.899380902105129
143 1 4.086465889583774 9.502590703628323 44.896753339321691
144 1 1.359705018140708 4.079835686891639 47.599496125359813
145 1 4.076113163526791 6.788758241806836 47.588048116495550
146 1 6.790598335235693 9.505756394602185 47.592946251863324
147 1 1.359647831347247 1.355234775094359 50.288209185313498
148 1 4.078572405748966 4.066449720408051 50.284195650972165
149 1 6.786369316386408 6.790618604922204 50.279841053486898
150 1 9.504057053770131 9.516515091079649 50.284078901405429
151 1 4.077093757298182 1.353838368775020 52.997177266082140
152 1 6.790767258853705 4.055508236201770 52.994599921033434
153 2 9.493083584447263 6.807980349703612 52.976144226059212
154 1 6.787322712970843 1.355013736765424 55.713258388700339
155 1 9.491278004729905 4.040664983435319 55.736205688215016
156 1 9.502299729164406 1.357281246888030 58.425544208188711
157 1 1.357247188970215 9.500445114562472 47.592334601393297
158 1 1.359851283425055 6.791449759148058 50.281580772214006
159 1 4.073031230486084 9.510954390498634 50.286015507571378
160 1 1.379821787984718 4.041654255352939 52.980489607305834
161 2 4.069165373873487 6.791607737845207 52.994829300478472
162 1 6.785486424307302 9.526484945265555 52.992224768188599
163 1 1.360670492564383 1.356948748739367 55.707051043494594
164 1 4.073876244103453 4.055445309872462 55.712939802628568
165 2 6.788949626463419 6.791067671537640 55.717761369501218
166 1 9.507363548991655 9.522616056006804 55.712585114136971
167 1 4.078036904895773 1.356427640749260 58.427299028385292
168 1 6.790374066553803 4.062608363994181 58.428397172350529
169 1 9.491830951829112 6.810766814924488 58.411453362330015
170 1 6.795308207613020 1.362953899310422 61.132605474319647
171 1 9.483982877688685 4.050418839839875 61.157167366329318
172 1 9.509614360955736 1.357368796413206 63.851489126225971
173 1 1.360097578927757 9.517954917474661 52.999844738896549
174 1 1.380025645154360 6.807884718545059 55.743065064825188
175 1 4.072655162210964 9.520807597117813 55.718061920116618
176 1 1.379695003051370 4.050687644985200 58.406076011411763
177 1 4.091881326579107 6.768094207162906 58.412717528942665
178 1 6.788246126740324 9.515110085240991 58.430094611391446
179 1 1.352847642691995 1.362567285486857 61.129215081296110
180 1 4.075926307279718 4.075085387237869 61.126849056243593
181 1 6.795159111943607 6.782507664145692 61.127107090313075
182 1 9.507242436073556 9.505148557182517 61.126758536091423
183 2 4.069832871097644 1.369836460856099 63.851502835961277
184 1 6.790292628764359 4.077583286659619 63.851302908710728
185 1 9.504744434545396 6.787712571199912 63.843590998587395
186 1 6.793790459879894 1.360807534104954 66.579321712021610
187 2 9.504501442758416 4.071607463689482 66.567304537426793
188 1 9.482065177010154 1.376959359447053 69.284463742852168
189 1 1.340038326715138 9.529769778586550 58.406714579077651
190 1 1.359058031050381 6.788744174426643 61.177312176375615
191 1 4.093495046095985 9.524346097908728 61.149906415314156
192 1 1.358516723862629 4.072787562308537 63.843738757395428
193 1 4.093791996160084 6.763880393953436 63.836731190436453
194 2 6.801825493658879 9.499105267898450 63.850881521418835
195 1 1.354264230605282 1.360749967428504 66.570453253686708
196 1 4.076141572377429 4.076498504735939 66.571412501511517
197 1 6.792583094814576 6.784410263154282 66.570188829344104
198 1 9.508074937126224 9.505884064276518 66.571723558339485
199 1 4.061901868225442 1.387057048369646 69.276932421965810
200 1 6.808925573822253 4.050055203212507 69.282685783040264
201 1 9.501870485015861 6.784471848723981 69.301131676841067
202 1 6.804117779761194 1.380209196155868 72.033117446348967
203 1 9.508032040798184 4.083425763160790 72.012387660769974
204 2 9.507573925697301 1.361780793302016 74.730662331552779
205 1 1.333680584909208 9.523073284148285 63.837378694853570
206 1 1.337320454933493 6.766764273151423 66.576215714925894
207 1 4.094127284354132 9.523615747398473 66.585593076178455
208 1 1.355549038080593 4.070163023895102 69.303729955126812
209 2 4.063898074476264 6.798063744638346 69.278174340202540
210 1 6.818903069270552 9.491182068244671 69.279704758578461
211 1 1.382531590513558 1.381004893436192 72.038251628247707
212 1 4.057655190298135 4.051152771056538 72.046083626458213
213 1 6.814198348168785 6.805932987150972 72.043024116563856
214 1 9.484277867517941 9.481028573686968 72.041176337694310
215 1 4.076508197806514 1.356655806011337 74.739454637052873
216 1 6.787785470989947 4.082426890257662 74.730023302373567
217 1 9.508549325785053 6.786462582500489 74.737291101657476
218 1 6.787000606490035 1.359330451895025 77.436414867789537
219 1 9.506945910564923 4.079811717481884 77.439147241047479
220 1 9.500626083603921 1.359612055098108 80.135151103248859
221 2 1.368384472150547 9.493388502784711 69.277002691348827
222 1 1.350339888191113 6.779739297029288 72.026166602188766
223 1 4.062732702798969 9.492891510936136 72.043318687984311
224 1 1.362704091794004 4.081691945279633 74.738276550044887
225 1 4.073802881279575 6.787944561398431 74.728567111689600
226 1 6.781839495960626 9.501329896950562 74.739067057129603
227 1 1.361019095776263 1.360024252281195 77.436738659844281
228 1 4.074500557263122 4.080717913383660 77.428197730833332
229 1 6.790448471508915 6.787484912730064 77.431565818753896
230 1 9.507693723268309 9.498386247125403 77.431784656910324
231 1 4.060797859879557 1.382196474025946 80.101174344247013
232 1 6.796869042510001 4.074903763250798 80.133253760860271
233 1 9.510845089079671 6.786856732900041 80.135654766927246
234 1 6.820926513264113 1.381179792105205 82.870788177128617
235 1 9.502655766058043 4.081650329266395 82.850803814966028
236 1 9.485251409461734 1.379002560582607 85.574970393576663
237 1 1.363792232682431 9.497811530063187 74.728375414885534
238 1 1.361938780265178 6.789573766973424 77.432136043132232
239 1 4.073485762983469 9.501455465757338 77.435364836982970
240 1 1.349771579137839 4.082088233057197 80.129392779749836
241 1 4.075145713857809 6.787521624316113 80.133833000250561
242 1 6.819468118495286 9.484056130865278 80.114813254443362
243 2 1.341458413748786 1.360440932388299 82.857016159894258
244 2 4.079091264127793 4.072939194869797 82.856594671103764
245 1 6.830085952026233 6.768282008645813 82.837735949450106
246 1 9.501954471571265 9.498965578207379 82.861180999144565
247 1 4.081184971718554 1.352871364161655 85.588747552703722
248 1 6.807834148329908 4.065385015332374 85.583064972029064
249 1 9.512158546506059 6.785018784714708 85.577498195766395
250 1 6.797081362408635 1.352679633495661 88.311073993311439
251 1 9.515599156436389 4.062796972850115 88.309097295633364
252 1 9.531280077163617 1.333232853709631 91.017050570056327
253 1 1.349259800444920 9.499689665906658 80.129511031596721
254 1 1.338230767418609 6.782437028002752 82.850271278060546
255 2 4.045518728050025 9.503666473978345 82.847115318936929
256 1 1.337751639843227 4.068730944167493 85.589974449805027
257 2 4.051202427541400 6.769459450417261 85.607290398452889
258 1 6.823587588643012 9.535525364587119 85.603474247782671
259 1 1.374726846385208 1.369950200723693 88.328395656257655
260 2 4.064529448701124 4.051786280925968 88.314800038197077
261 2 6.806199128321598 6.792457399213520 88.310576647137054
262 1 9.493969421131863 9.487763769434872 88.335592081746569
263 1 4.069836895355981 1.350797011284314 91.043797300218770
264 1 6.800146127871408 4.059437427353563 91.006890015146311
265 1 9.532288426214036 6.766987385413969 91.026527846913893
266 1 6.766093914980940 1.335409201307848 93.769788529127354
267 1 9.527500722282907 4.093238621783511 93.771210724395019
268 2 9.501725485741110 1.356519909129420 96.468396984080258
269 1 1.360679875823879 9.481956755757997 85.575240930512649
270 1 1.336210558616768 6.791842897660294 88.310484932497019
271 1 4.065719358903232 9.525369484233323 88.304221238290580
272 1 1.352030901665942 4.063720062904953 91.044728959985278
273 2 4.045109943185278 6.814338238508954 91.024627308554088
274 1 6.773125542988327 9.531772945851655 91.024870234656291
275 1 1.366311710918937 1.352611761975383 93.754006295840469
276 1 4.051731490472668 4.043335807712051 93.780146589857566
277 1 6.795992101060352 6.787605156763680 93.797920569580498
278 1 9.531735595800114 9.518928476250563 93.770729324508324
279 1 4.079665235835757 1.344617725032589 96.468884150512821
280 1 6.791372278280205 4.072013395117640 96.467046873484094
281 1 9.509883765805064 6.789784348000174 96.477602489120414
282 1 6.791531161835000 1.347917136153665 99.186840138831954
283 1 9.501142207740131 4.082730479956910 99.186367604414642
284 1 9.495069770852556 1.359450292040152 101.893321726149779
285 1 1.354218278922640 9.511166785293161 91.032083068992279
286 1 1.356789418246106 6.790637974860774 93.762103439203074
287 1 4.069696865006392 9.506027284363300 93.762372560037093
288 1 1.358884003469502 4.084098089427814 96.464659582557218
289 1 4.072090164611227 6.791505529277481 96.466179148876222
290 1 6.785174441597476 9.495421153867740 96.473496044248577
291 2 1.359648892139282 1.355969424187703 99.184362686368900
292 2 4.082597109303297 4.078105219357393 99.182855796894586
293 1 6.795897858745558 6.791197887335219 99.182526037716556
294 1 9.493708716465227 9.490731086114408 99.184728778064567
295 1 4.087133643246212 1.355768628275837 101.904528756857360
296 1 6.796674081795408 4.073701922823250 101.895870132093108
297 1 9.499637392614588 6.781113588954033 101.894803631506690
298 1 6.791531756768985 1.355159929542906 104.592286234149370
299 1 9.505597140254133 4.070605567629805 104.596303755304987
300 1 9.503379442740854 1.356141359405306 107.292241224483064
301 1 1.368899275911322 9.490963470946751 96.470363259447026
302 1 1.357183578347057 6.785931883370586 99.177830689314504
303 1 4.088339560119869 9.492633318502195 99.178028473240943
304 1 1.355444747016142 4.075793915358823 101.900548941713623
305 1 4.084323942922521 6.785866411144494 101.895447748851765
306 1 6.791950784678195 9.499326857309640 101.891835008564541
307 1 1.360777569091470 1.362086191276998 104.598695356107513
308 1 4.076239058188042 4.069870974551789 104.591446693691097
309 1 6.792433313370188 6.785002785538611 104.596656518874440
310 1 9.501384807513526 9.501517850366637 104.596195974083926
311 1 4.074421335584886 1.358509827325000 107.292962043956535
312 1 6.793726293762582 4.059831762234826 107.285781990951889
313 1 9.516618568442354 6.784917184649254 107.287301517554937
314 1 6.794283347581070 1.350179752508139 110.000484981723218
315 1 9.512775037856938 4.065766778403701 109.991030424051189
316 1 9.513811701156287 1.346609702427424 112.719895989387425
317 2 1.360601967462115 9.495361933674603 101.897058624546091
318 1 1.358893128057664 6.779575805062309 104.598268091930692
319 1 4.082657457528012 9.501813206091441 104.603999605121871
320 1 1.359488415088229 4.073014473555345 107.293950090391718
321 1 4.071283813497621 6.782281855823288 107.288550122972140
322 1 6.794175823373046 9.508027752427948 107.289061775343711
323 1 1.336337676383607 1.371882885636019 109.977894051991399
324 1 4.070237397989912 4.064798277371929 109.996357332702445
325 2 6.813084870032411 6.770776646068093 109.977908005318099
326 1 9.513076587062503 9.507864552017613 110.005256290280073
327 1 4.088259261271075 1.366242410697878 112.733866813514368
328 2 6.793960543708969 4.072017884390528 112.723195406482787
329 1 9.511357982036312 6.796146025174990 112.726839376611949
330 2 6.789079816383310 1.350550120672527 115.450760728654885
331 1 9.511327688045142 4.079107958891877 115.451400631091161
332 1 9.513330044190900 1.349369166757575 118.120525353829649
333 1 1.356501166408307 9.503202055521484 107.289041944858809
334 1 1.357740697688367 6.792125665497492 109.999214018000217
335 1 4.068273178802703 9.507414512442455 109.963927367876934
336 2 1.356269416018468 4.070597296155609 112.722275615521980
337 1 4.048287405694997 6.777359624387461 112.744507334248311
338 1 6.813282901114452 9.523033522274808 112.738652052325293
339 1 1.362719175184091 1.346212552137760 115.438110932265033
340 1 4.069228784138589 4.077722905988610 115.445231520269189
341 1 6.788181697546423 6.798003609836557 115.437587672784261
342 1 9.510851641580656 9.496092145538274 115.437284922746301
343 1 4.068863293224352 1.353632245147246 118.158234666134859
344 1 6.762551398778768 4.099586337926590 118.137282778117680
345 1 9.487076222406090 6.812061868492477 118.132033116094561
346 1 6.759969884873413 1.326884247484387 120.888231858137146
347 2 9.508795915202022 4.070061613439818 120.912243662599948
348 1 9.499459694711783 1.348871402597130 123.594954925959001
349 1 1.338125118668312 9.481485487204370 112.740648014008755
350 1 1.358505129699827 6.787124059739597 115.450623829428295
351 1 4.071190197538888 9.495711254722519 115.438691169604198
352 1 1.387273569277219 4.051684408288089 118.135093819571139
353 1 4.076276927820764 6.788759046064845 118.155627283206329
354 1 6.783264508212119 9.494726381139751 118.163261477407517
355 1 1.383958894081616 1.373000267343320 120.897265455987323
356 1 4.075663858748815 4.074068997649085 120.877076916149704
357 1 6.799611680661899 6.771528324208493 120.861012377083114
358 1 9.486312485986502 9.481794451239528 120.893720202211583
359 1 4.081090451656554 1.352429021189038 123.591643652367964
360 1 6.784848993887825 4.061177705220413 123.589502265799439
361 1 9.510510202400820 6.793298102009234 123.595741198136622
362 1 6.793914628358651 1.355562716671718 126.311007275083682
363 1 9.497631264255963 4.070466797676420 126.298640901016540
364 1 9.490218365396016 1.346851379155225 129.031656930675354
365 1 1.381858596495700 9.481706235938947 118.136775710331506
366 1 1.389042029561027 6.814236923822355 120.891383089792470
367 1 4.055885483285238 9.521655447648023 120.857564246604682
368 1 1.365272081657176 4.079094866389694 123.602206033566702
369 1 4.052451972391734 6.771148756291910 123.611237334669340
370 1 6.804594876106173 9.524680618769667 123.614721141824248
371 2 1.358556133678509 1.346893715883928 126.305321639672101
372 1 4.100649120299422 4.048793807133928 126.294290604426166
373 2 6.791903248178901 6.787359103869996 126.310128585215423
374 1 9.506364411907308 9.506099405570057 126.317223046635220
375 1 4.086614114231434 1.349256469204935 129.024486166142623
376 1 6.790800832562483 4.064828053294940 129.028764421267397
377 1 9.503642262512553 6.792317778592786 129.024274726625691
378 1 6.783619065021536 1.356242899105530 131.735163720250540
379 1 9.493683290346132 4.073426130264546 131.737036476599542
380 2 9.495968766692620 1.364428530599548 134.445282296146445
381 1 1.361018929452983 9.502754107668478 123.584422615168535
382 1 1.336015956062121 6.814824508770217 126.287491681830602
383 1 4.073585345420644 9.504491929949463 126.306828138528971
384 2 1.338973069227438 4.058074113349953 129.043025095246406
385 1 4.094633761920861 6.812008445266701 129.048543097285659
386 1 6.792466510612766 9.510491112698908 129.024179547464911
387 1 1.358186551545630 1.354558402777515 131.726748017532003
388 1 4.082268882650290 4.068943467070087 131.733705818788849
389 1 6.794270552712859 6.786299177296897 131.730050833297099
390 1 9.494519082740876 9.498352990461056 131.722032144709942
391 1 4.078058390968635 1.362650061167612 134.441877591769980
392 1 6.784315970878009 4.076960612799857 134.443518470551595
393 1 9.499008410264578 6.775962842943453 134.440094037536653
394 1 6.760091507838783 1.376428178132065 137.142853372821264
395 1 9.504394161951202 4.081341098047691 137.158996010262996
396 2 9.545574403767711 1.356121620464038 139.878803219805235
397 1 1.356999696889024 9.497434631979788 129.032428387481559
398 1 1.360996535417270 6.786391549857528 131.738386881021654
399 1 4.082936529191339 9.503525680080433 131.731995943164918
400 1 1.364415388293110 4.075698646809799 134.441978070244261
401 1 4.101560555615541 6.759603506889123 134.422462517571319
402 1 6.783429789650153 9.494893013720000 134.445569961375469
403 1 1.372566893727501 1.362395028743417 137.158341846667042
404 1 4.067282512043049 4.077595804754545 137.154544311755103
405 1 6.789360043157000 6.784981637700802 137.153676201609073
406 1 9.521673624212573 9.464410521975335 137.138555069367442
407 1 4.053367623661982 1.371066291109339 139.855600684613677
408 1 6.765374875389263 4.103112086302666 139.849182580499189
409 1 9.505673497498778 6.783706866249237 139.878455338857634
410 1 6.769985583200295 1.370590884238545 142.624104246591173
411 1 9.509060732436614 4.124840240049461 142.612801102669920
412 1 9.510011210192445 1.358415995892846 145.363994761576635
413 2 1.348793755605757 9.512980330060381 134.424629787426966
414 1 1.343253371794055 6.754548174472278 137.181804800870992
415 1 4.101164347479360 9.517556129809696 137.181104212817502
416 1 1.359228429874054 4.081349151862154 139.883013155246147
417 1 4.069313904844685 6.790525948817568 139.875178238115353
418 1 6.787501864096432 9.455974253033578 139.887889148332704
419 1 1.382421044156024 1.333197658457603 142.593790301143031
420 2 4.070375045641794 4.078043895522014 142.601548231450380
421 1 6.790320177464843 6.792898119141530 142.609304211147844
422 1 9.528711511063024 9.475697319580618 142.586807321853968
423 1 4.065513868194090 1.356917142232051 145.328673553969963
424 1 6.795238917856992 4.075704928482502 145.326117426174591
425 1 9.514220072934192 6.787013465474009 145.323684350579981
426 1 6.774243284090052 1.381692826608279 148.024522420079705
427 1 9.513422996105101 4.070670856756954 148.046753336810525
428 1 9.527306837292771 1.377645874759796 150.774425181274495
429 1 1.371458842898757 9.487301601280855 139.868651032338363
430 1 1.356345855508684 6.791166502307781 142.598921265205576
431 1 4.048377701186554 9.474748706002496 142.626179125689049
432 1 1.379137807320244 4.094724147646651 145.353200383554707
433 1 4.068151844771674 6.785259952778302 145.324671773813691
434 1 6.771239616787856 9.479597044388541 145.338710215495809
435 1 1.354169598300582 1.365167252789121 148.043484091206238
436 1 4.067150819903953 4.073085821930940 148.043453197639309
437 2 6.795123356867434 6.774954084919956 148.043973629329201
438 1 9.535103974869651 9.486174451982929 148.023729242424423
439 1 4.057727083832864 1.382417516053306 150.740593657194523
440 1 6.786086940403304 4.067371368722950 150.758247336281272
441 1 9.514430602249544 6.787368921496776 150.760354580356420
442 1 6.812494055356707 1.376234957219180 153.488659725708089
443 1 9.485068821214890 4.096969543679004 153.449075480077909
444 1 9.487096943515152 1.336293745374078 156.202506360971483
445 1 1.354458443524974 9.500568471352750 145.321092855090626
446 1 1.356142705211216 6.781692028352682 148.047050416827034
447 2 4.062954674885030 9.506069837275579 148.046711922259760
448 1 1.359890653779658 4.079168750142900 150.760011194595393
449 1 4.062664431789119 6.776828303454375 150.767502921354833
450 1 6.797652883053194 9.471552816546787 150.765140778441918
451 1 1.380776688591521 1.335040431384974 153.445706991359259
452 1 4.079242009419161 4.073607611190768 153.469046249447388
453 1 6.783763004714674 6.786716718303289 153.462589070734026
454 1 9.506168006451318 9.504643472731832 153.467608832149693
455 1 4.099641688658372 1.335558910538582 156.160810582433669
456 1 6.789513195125761 4.076629856342473 156.184491280879200
457 1 9.474919563593664 6.812514638670808 156.155045828462931
458 1 6.786688199136175 1.353637167748966 158.894430486779726
459 1 9.478038955907783 4.048236617196249 158.910830517016677
460 1 9.489046881738254 1.360593315904464 161.607447411938892
461 1 1.353217030608922 9.498127079897923 150.759386059566623
462 1 1.356375543859033 6.790483198715489 153.472926425498429
463 1 4.053763527706383 9.478763730102099 153.486749353242118
464 1 1.381224116744946 4.085578637686460 156.155117824613143
465 1 4.085272020350647 6.789229702814595 156.180514277316803
466 1 6.788279687869418 9.500262775397417 156.174667621940387
467 1 1.338746641613114 1.342480028592645 158.910774470464304
468 1 4.107458163177450 4.088565606539587 158.918421817442407
469 1 6.793227084851826 6.793148668940853 158.896876512088937
470 1 9.488219919223456 9.505378194276110 158.893404877538586
471 1 4.090651203296988 1.356179453931098 161.600312843265328
472 1 6.799165040658357 4.072966152393023 161.610107898097681
473 1 9.493368906964667 6.783920137052663 161.614104371584375
474 1 6.796893705776272 1.352420400718719 164.320586750499729
475 1 9.501755847358439 4.080995408056485 164.315830888080910
476 1 9.506254485301300 1.364180629769774 167.026338983659372
477 1 1.354686877803885 9.509289930030677 156.181467857967590
478 2 1.379806809016073 6.806697053261808 158.908612944045075
479 1 4.091334507184683 9.512100933893961 158.889178069147533
480 1 1.351433397588586 4.075657979595505 161.600561874487937
481 1 4.091911980133825 6.796385556774452 161.613228155305080
482 1 6.791022092668538 9.505261238600756 161.609323034368572
483 2 1.356022395882201 1.361828343636713 164.324929676301338
484 2 4.082730160975670 4.079930304229071 164.320064473038059
485 1 6.798589113838961 6.795709273563210 164.323663321991944
486 1 9.493284842870699 9.498762343564826 164.328453385388059
487 1 4.074701280839069 1.358707127075301 167.031512550839409
488 1 6.796804923073808 4.079379850665005 167.027627820240212