LAMMPS DATA file generated by GEO Finder

800 atoms

1 atom types

0.0 5.431000 xlo xhi
0.0 5.431000 ylo yhi
0.0 543.100000 zlo zhi

Masses

1 28.0855

Atoms

1 1 1.357750 1.357750 1.357750
2 1 4.073250 4.073250 1.357750
3 1 4.073250 1.357750 4.073250
4 1 1.357750 4.073250 4.073250
5 1 1.357750 1.357750 6.788750
6 1 4.073250 4.073250 6.788750
7 1 4.073250 1.357750 9.504250
8 1 1.357750 4.073250 9.504250
9 1 1.357750 1.357750 12.219750
10 1 4.073250 4.073250 12.219750
11 1 4.073250 1.357750 14.935250
12 1 1.357750 4.073250 14.935250
13 1 1.357750 1.357750 17.650750
14 1 4.073250 4.073250 17.650750
15 1 4.073251 1.357750 20.366250
16 1 1.357750 4.073251 20.366250
17 1 1.357750 1.357750 23.081750
18 1 4.073251 4.073251 23.081750
19 1 4.073251 1.357750 25.797250
20 1 1.357750 4.073251 25.797250
21 1 1.357750 1.357750 28.512750
22 1 4.073251 4.073251 28.512750
23 1 4.073250 1.357750 31.228250
24 1 1.357750 4.073250 31.228250
25 1 1.357750 1.357750 33.943750
26 1 4.073250 4.073250 33.943750
27 1 4.073251 1.357750 36.659251
28 1 1.357750 4.073251 36.659251
29 1 1.357750 1.357750 39.374751
30 1 4.073251 4.073251 39.374751
31 1 4.073250 1.357750 42.090251
32 1 1.357750 4.073250 42.090251
33 1 1.357750 1.357750 44.805750
34 1 4.073250 4.073250 44.805750
35 1 4.073250 1.357750 47.521250
36 1 1.357750 4.073250 47.521250
37 1 1.357750 1.357750 50.236750
38 1 4.073250 4.073250 50.236750
39 1 4.073251 1.357750 52.952250
40 1 1.357750 4.073251 52.952250
41 1 1.357750 1.357750 55.667751
42 1 4.073251 4.073251 55.667751
43 1 4.073250 1.357750 58.383251
44 1 1.357750 4.073250 58.383251
45 1 1.357750 1.357750 61.098750
46 1 4.073250 4.073250 61.098750
47 1 4.073250 1.357750 63.814250
48 1 1.357750 4.073250 63.814250
49 1 1.357750 1.357750 66.529750
50 1 4.073250 4.073250 66.529750
51 1 4.073250 1.357750 69.245250
52 1 1.357750 4.073250 69.245250
53 1 1.357750 1.357750 71.960750
54 1 4.073250 4.073250 71.960750
55 1 4.073251 1.357750 74.676250
56 1 1.357750 4.073251 74.676250
57 1 1.357750 1.357750 77.391750
58 1 4.073251 4.073251 77.391750
59 1 4.073250 1.357750 80.107251
60 1 1.357750 4.073250 80.107251
61 1 1.357750 1.357750 82.822750
62 1 4.073250 4.073250 82.822750
63 1 4.073250 1.357750 85.538250
64 1 1.357750 4.073250 85.538250
65 1 1.357750 1.357750 88.253750
66 1 4.073250 4.073250 88.253750
67 1 4.073250 1.357750 90.969250
68 1 1.357750 4.073250 90.969250
69 1 1.357750 1.357750 93.684750
70 1 4.073250 4.073250 93.684750
71 1 4.073250 1.357750 96.400250
72 1 1.357750 4.073250 96.400250
73 1 1.357750 1.357750 99.115750
74 1 4.073250 4.073250 99.115750
75 1 4.073251 1.357750 101.831250
76 1 1.357750 4.073251 101.831250
77 1 1.357750 1.357750 104.546750
78 1 4.073251 4.073251 104.546750
79 1 4.073250 1.357750 107.262251
80 1 1.357750 4.073250 107.262251
81 1 1.357750 1.357750 109.977750
82 1 4.073250 4.073250 109.977750
83 1 4.073250 1.357750 112.693250
84 1 1.357750 4.073250 112.693250
85 1 1.357750 1.357750 115.408750
86 1 4.073250 4.073250 115.408750
87 1 4.073250 1.357750 118.124250
88 1 1.357750 4.073250 118.124250
89 1 1.357750 1.357750 120.839750
90 1 4.073250 4.073250 120.839750
91 1 4.073250 1.357750 123.555250
92 1 1.357750 4.073250 123.555250
93 1 1.357750 1.357750 126.270750
94 1 4.073250 4.073250 126.270750
95 1 4.073250 1.357750 128.986251
96 1 1.357750 4.073250 128.986251
97 1 1.357750 1.357750 131.701750
98 1 4.073250 4.073250 131.701750
99 1 4.073251 1.357750 134.417251
100 1 1.357750 4.073251 134.417251
101 1 1.357750 1.357750 137.132751
102 1 4.073251 4.073251 137.132751
103 1 4.073250 1.357750 139.848250
104 1 1.357750 4.073250 139.848250
105 1 1.357750 1.357750 142.563750
106 1 4.073250 4.073250 142.563750
107 1 4.073251 1.357750 145.279250
108 1 1.357750 4.073251 145.279250
109 1 1.357750 1.357750 147.994750
110 1 4.073251 4.073251 147.994750
111 1 4.073251 1.357750 150.710251
112 1 1.357750 4.073251 150.710251
113 1 1.357750 1.357750 153.425751
114 1 4.073251 4.073251 153.425751
115 1 4.073250 1.357750 156.141250
116 1 1.357750 4.073250 156.141250
117 1 1.357750 1.357750 158.856750
118 1 4.073250 4.073250 158.856750
119 1 4.073251 1.357750 161.572250
120 1 1.357750 4.073251 161.572250
121 1 1.357750 1.357750 164.287751
122 1 4.073251 4.073251 164.287751
123 1 4.073250 1.357750 167.003250
124 1 1.357750 4.073250 167.003250
125 1 1.357750 1.357750 169.718750
126 1 4.073250 4.073250 169.718750
127 1 4.073251 1.357750 172.434251
128 1 1.357750 4.073251 172.434251
129 1 1.357750 1.357750 175.149750
130 1 4.073251 4.073251 175.149750
131 1 4.073251 1.357750 177.865250
132 1 1.357750 4.073251 177.865250
133 1 1.357750 1.357750 180.580751
134 1 4.073251 4.073251 180.580751
135 1 4.073250 1.357750 183.296250
136 1 1.357750 4.073250 183.296250
137 1 1.357750 1.357750 186.011750
138 1 4.073250 4.073250 186.011750
139 1 4.073251 1.357750 188.727251
140 1 1.357750 4.073251 188.727251
141 1 1.357750 1.357750 191.442751
142 1 4.073251 4.073251 191.442751
143 1 4.073250 1.357750 194.158250
144 1 1.357750 4.073250 194.158250
145 1 1.357750 1.357750 196.873750
146 1 4.073250 4.073250 196.873750
147 1 4.073251 1.357750 199.589250
148 1 1.357750 4.073251 199.589250
149 1 1.357750 1.357750 202.304750
150 1 4.073251 4.073251 202.304750
151 1 4.073251 1.357750 205.020251
152 1 1.357750 4.073251 205.020251
153 1 1.357750 1.357750 207.735751
154 1 4.073251 4.073251 207.735751
155 1 4.073250 1.357750 210.451251
156 1 1.357750 4.073250 210.451251
157 1 1.357750 1.357750 213.166750
158 1 4.073250 4.073250 213.166750
159 1 4.073251 1.357750 215.882250
160 1 1.357750 4.073251 215.882250
161 1 1.357750 1.357750 218.597751
162 1 4.073251 4.073251 218.597751
163 1 4.073250 1.357750 221.313250
164 1 1.357750 4.073250 221.313250
165 1 1.357750 1.357750 224.028750
166 1 4.073250 4.073250 224.028750
167 1 4.073251 1.357750 226.744251
168 1 1.357750 4.073251 226.744251
169 1 1.357750 1.357750 229.459750
170 1 4.073251 4.073251 229.459750
171 1 4.073251 1.357750 232.175250
172 1 1.357750 4.073251 232.175250
173 1 1.357750 1.357750 234.890751
174 1 4.073251 4.073251 234.890751
175 1 4.073250 1.357750 237.606251
176 1 1.357750 4.073250 237.606251
177 1 1.357750 1.357750 240.321750
178 1 4.073250 4.073250 240.321750
179 1 4.073251 1.357750 243.037251
180 1 1.357750 4.073251 243.037251
181 1 1.357750 1.357750 245.752751
182 1 4.073251 4.073251 245.752751
183 1 4.073250 1.357750 248.468250
184 1 1.357750 4.073250 248.468250
185 1 1.357750 1.357750 251.183750
186 1 4.073250 4.073250 251.183750
187 1 4.073251 1.357750 253.899250
188 1 1.357750 4.073251 253.899250
189 1 1.357750 1.357750 256.614751
190 1 4.073251 4.073251 256.614751
191 1 4.073250 1.357750 259.330250
192 1 1.357750 4.073250 259.330250
193 1 1.357750 1.357750 262.045750
194 1 4.073250 4.073250 262.045750
195 1 4.073251 1.357750 264.761251
196 1 1.357750 4.073251 264.761251
197 1 1.357750 1.357750 267.476751
198 1 4.073251 4.073251 267.476751
199 1 4.073250 1.357750 270.192251
200 1 1.357750 4.073250 270.192251
201 1 1.357750 1.357750 272.907750
202 1 4.073250 4.073250 272.907750
203 1 4.073250 1.357750 275.623250
204 1 1.357750 4.073250 275.623250
205 1 1.357750 1.357750 278.338750
206 1 4.073250 4.073250 278.338750
207 1 4.073250 1.357750 281.054250
208 1 1.357750 4.073250 281.054250
209 1 1.357750 1.357750 283.769750
210 1 4.073250 4.073250 283.769750
211 1 4.073251 1.357750 286.485250
212 1 1.357750 4.073251 286.485250
213 1 1.357750 1.357750 289.200750
214 1 4.073251 4.073251 289.200750
215 1 4.073250 1.357750 291.916250
216 1 1.357750 4.073250 291.916250
217 1 1.357750 1.357750 294.631750
218 1 4.073250 4.073250 294.631750
219 1 4.073250 1.357750 297.347251
220 1 1.357750 4.073250 297.347251
221 1 1.357750 1.357750 300.062750
222 1 4.073250 4.073250 300.062750
223 1 4.073251 1.357750 302.778250
224 1 1.357750 4.073251 302.778250
225 1 1.357750 1.357750 305.493751
226 1 4.073251 4.073251 305.493751
227 1 4.073250 1.357750 308.209250
228 1 1.357750 4.073250 308.209250
229 1 1.357750 1.357750 310.924750
230 1 4.073250 4.073250 310.924750
231 1 4.073250 1.357750 313.640251
232 1 1.357750 4.073250 313.640251
233 1 1.357750 1.357750 316.355750
234 1 4.073250 4.073250 316.355750
235 1 4.073251 1.357750 319.071250
236 1 1.357750 4.073251 319.071250
237 1 1.357750 1.357750 321.786751
238 1 4.073251 4.073251 321.786751
239 1 4.073250 1.357750 324.502250
240 1 1.357750 4.073250 324.502250
241 1 1.357750 1.357750 327.217750
242 1 4.073250 4.073250 327.217750
243 1 4.073250 1.357750 329.933251
244 1 1.357750 4.073250 329.933251
245 1 1.357750 1.357750 332.648750
246 1 4.073250 4.073250 332.648750
247 1 4.073250 1.357750 335.364250
248 1 1.357750 4.073250 335.364250
249 1 1.357750 1.357750 338.079750
250 1 4.073250 4.073250 338.079750
251 1 4.073251 1.357750 340.795250
252 1 1.357750 4.073251 340.795250
253 1 1.357750 1.357750 343.510751
254 1 4.073251 4.073251 343.510751
255 1 4.073250 1.357750 346.226251
256 1 1.357750 4.073250 346.226251
257 1 1.357750 1.357750 348.941750
258 1 4.073250 4.073250 348.941750
259 1 4.073250 1.357750 351.657250
260 1 1.357750 4.073250 351.657250
261 1 1.357750 1.357750 354.372750
262 1 4.073250 4.073250 354.372750
263 1 4.073251 1.357750 357.088250
264 1 1.357750 4.073251 357.088250
265 1 1.357750 1.357750 359.803751
266 1 4.073251 4.073251 359.803751
267 1 4.073250 1.357750 362.519251
268 1 1.357750 4.073250 362.519251
269 1 1.357750 1.357750 365.234750
270 1 4.073250 4.073250 365.234750
271 1 4.073250 1.357750 367.950250
272 1 1.357750 4.073250 367.950250
273 1 1.357750 1.357750 370.665750
274 1 4.073250 4.073250 370.665750
275 1 4.073250 1.357750 373.381250
276 1 1.357750 4.073250 373.381250
277 1 1.357750 1.357750 376.096750
278 1 4.073250 4.073250 376.096750
279 1 4.073251 1.357750 378.812250
280 1 1.357750 4.073251 378.812250
281 1 1.357750 1.357750 381.527750
282 1 4.073251 4.073251 381.527750
283 1 4.073250 1.357750 384.243250
284 1 1.357750 4.073250 384.243250
285 1 1.357750 1.357750 386.958750
286 1 4.073250 4.073250 386.958750
287 1 4.073250 1.357750 389.674250
288 1 1.357750 4.073250 389.674250
289 1 1.357750 1.357750 392.389750
290 1 4.073250 4.073250 392.389750
291 1 4.073251 1.357750 395.105250
292 1 1.357750 4.073251 395.105250
293 1 1.357750 1.357750 397.820751
294 1 4.073251 4.073251 397.820751
295 1 4.073250 1.357750 400.536250
296 1 1.357750 4.073250 400.536250
297 1 1.357750 1.357750 403.251750
298 1 4.073250 4.073250 403.251750
299 1 4.073250 1.357750 405.967251
300 1 1.357750 4.073250 405.967251
301 1 1.357750 1.357750 408.682750
302 1 4.073250 4.073250 408.682750
303 1 4.073251 1.357750 411.398250
304 1 1.357750 4.073251 411.398250
305 1 1.357750 1.357750 414.113751
306 1 4.073251 4.073251 414.113751
307 1 4.073250 1.357750 416.829250
308 1 1.357750 4.073250 416.829250
309 1 1.357750 1.357750 419.544750
310 1 4.073250 4.073250 419.544750
311 1 4.073250 1.357750 422.260251
312 1 1.357750 4.073250 422.260251
313 1 1.357750 1.357750 424.975750
314 1 4.073250 4.073250 424.975750
315 1 4.073250 1.357750 427.691250
316 1 1.357750 4.073250 427.691250
317 1 1.357750 1.357750 430.406750
318 1 4.073250 4.073250 430.406750
319 1 4.073251 1.357750 433.122250
320 1 1.357750 4.073251 433.122250
321 1 1.357750 1.357750 435.837750
322 1 4.073251 4.073251 435.837750
323 1 4.073250 1.357750 438.553251
324 1 1.357750 4.073250 438.553251
325 1 1.357750 1.357750 441.268750
326 1 4.073250 4.073250 441.268750
327 1 4.073250 1.357750 443.984250
328 1 1.357750 4.073250 443.984250
329 1 1.357750 1.357750 446.699750
330 1 4.073250 4.073250 446.699750
331 1 4.073251 1.357750 449.415250
332 1 1.357750 4.073251 449.415250
333 1 1.357750 1.357750 452.130751
334 1 4.073251 4.073251 452.130751
335 1 4.073250 1.357750 454.846251
336 1 1.357750 4.073250 454.846251
337 1 1.357750 1.357750 457.561750
338 1 4.073250 4.073250 457.561750
339 1 4.073250 1.357750 460.277250
340 1 1.357750 4.073250 460.277250
341 1 1.357750 1.357750 462.992750
342 1 4.073250 4.073250 462.992750
343 1 4.073251 1.357750 465.708250
344 1 1.357750 4.073251 465.708250
345 1 1.357750 1.357750 468.423751
346 1 4.073251 4.073251 468.423751
347 1 4.073250 1.357750 471.139251
348 1 1.357750 4.073250 471.139251
349 1 1.357750 1.357750 473.854750
350 1 4.073250 4.073250 473.854750
351 1 4.073250 1.357750 476.570250
352 1 1.357750 4.073250 476.570250
353 1 1.357750 1.357750 479.285750
354 1 4.073250 4.073250 479.285750
355 1 4.073250 1.357750 482.001250
356 1 1.357750 4.073250 482.001250
357 1 1.357750 1.357750 484.716750
358 1 4.073250 4.073250 484.716750
359 1 4.073251 1.357750 487.432250
360 1 1.357750 4.073251 487.432250
361 1 1.357750 1.357750 490.147751
362 1 4.073251 4.073251 490.147751
363 1 4.073250 1.357750 492.863250
364 1 1.357750 4.073250 492.863250
365 1 1.357750 1.357750 495.578750
366 1 4.073250 4.073250 495.578750
367 1 4.073250 1.357750 498.294251
368 1 1.357750 4.073250 498.294251
369 1 1.357750 1.357750 501.009750
370 1 4.073250 4.073250 501.009750
371 1 4.073251 1.357750 503.725250
372 1 1.357750 4.073251 503.725250
373 1 1.357750 1.357750 506.440751
374 1 4.073251 4.073251 506.440751
375 1 4.073250 1.357750 509.156250
376 1 1.357750 4.073250 509.156250
377 1 1.357750 1.357750 511.871750
378 1 4.073250 4.073250 511.871750
379 1 4.073251 1.357750 514.587251
380 1 1.357750 4.073251 514.587251
381 1 1.357750 1.357750 517.302751
382 1 4.073251 4.073251 517.302751
383 1 4.073250 1.357750 520.018250
384 1 1.357750 4.073250 520.018250
385 1 1.357750 1.357750 522.733750
386 1 4.073250 4.073250 522.733750
387 1 4.073251 1.357750 525.449250
388 1 1.357750 4.073251 525.449250
389 1 1.357750 1.357750 528.164750
390 1 4.073251 4.073251 528.164750
391 1 4.073251 1.357750 530.880251
392 1 1.357750 4.073251 530.880251
393 1 1.357750 1.357750 533.595751
394 1 4.073251 4.073251 533.595751
395 1 4.073250 1.357750 536.311251
396 1 1.357750 4.073250 536.311251
397 1 1.357750 1.357750 539.026750
398 1 4.073250 4.073250 539.026750
399 1 4.073251 1.357750 541.742250
400 1 1.357750 4.073251 541.742250
401 1 0.000001 0.000001 0.000001
402 1 2.715500 2.715500 0.000001
403 1 2.715500 0.000001 2.715500
404 1 0.000001 2.715500 2.715500
405 1 0.000001 0.000001 5.431000
406 1 2.715500 2.715500 5.431000
407 1 2.715500 0.000001 8.146500
408 1 0.000001 2.715500 8.146500
409 1 0.000001 0.000001 10.862000
410 1 2.715500 2.715500 10.862000
411 1 2.715500 0.000001 13.577500
412 1 0.000001 2.715500 13.577500
413 1 0.000001 0.000001 16.293000
414 1 2.715500 2.715500 16.293000
415 1 2.715501 0.000001 19.008500
416 1 0.000001 2.715501 19.008500
417 1 0.000001 0.000001 21.724000
418 1 2.715501 2.715501 21.724000
419 1 2.715501 0.000001 24.439501
420 1 0.000001 2.715501 24.439501
421 1 0.000001 0.000001 27.155000
422 1 2.715501 2.715501 27.155000
423 1 2.715500 0.000001 29.870500
424 1 0.000001 2.715500 29.870500
425 1 0.000001 0.000001 32.586000
426 1 2.715500 2.715500 32.586000
427 1 2.715501 0.000001 35.301501
428 1 0.000001 2.715501 35.301501
429 1 0.000001 0.000001 38.017000
430 1 2.715501 2.715501 38.017000
431 1 2.715500 0.000001 40.732500
432 1 0.000001 2.715500 40.732500
433 1 0.000001 0.000001 43.448000
434 1 2.715500 2.715500 43.448000
435 1 2.715500 0.000001 46.163500
436 1 0.000001 2.715500 46.163500
437 1 0.000001 0.000001 48.879000
438 1 2.715500 2.715500 48.879000
439 1 2.715501 0.000001 51.594500
440 1 0.000001 2.715501 51.594500
441 1 0.000001 0.000001 54.310000
442 1 2.715501 2.715501 54.310000
443 1 2.715500 0.000001 57.025500
444 1 0.000001 2.715500 57.025500
445 1 0.000001 0.000001 59.741000
446 1 2.715500 2.715500 59.741000
447 1 2.715500 0.000001 62.456500
448 1 0.000001 2.715500 62.456500
449 1 0.000001 0.000001 65.172000
450 1 2.715500 2.715500 65.172000
451 1 2.715500 0.000001 67.887500
452 1 0.000001 2.715500 67.887500
453 1 0.000001 0.000001 70.603000
454 1 2.715500 2.715500 70.603000
455 1 2.715501 0.000001 73.318500
456 1 0.000001 2.715501 73.318500
457 1 0.000001 0.000001 76.034000
458 1 2.715501 2.715501 76.034000
459 1 2.715500 0.000001 78.749501
460 1 0.000001 2.715500 78.749501
461 1 0.000001 0.000001 81.465000
462 1 2.715500 2.715500 81.465000
463 1 2.715500 0.000001 84.180500
464 1 0.000001 2.715500 84.180500
465 1 0.000001 0.000001 86.896000
466 1 2.715500 2.715500 86.896000
467 1 2.715500 0.000001 89.611500
468 1 0.000001 2.715500 89.611500
469 1 0.000001 0.000001 92.327000
470 1 2.715500 2.715500 92.327000
471 1 2.715500 0.000001 95.042500
472 1 0.000001 2.715500 95.042500
473 1 0.000001 0.000001 97.758000
474 1 2.715500 2.715500 97.758000
475 1 2.715501 0.000001 100.473500
476 1 0.000001 2.715501 100.473500
477 1 0.000001 0.000001 103.189000
478 1 2.715501 2.715501 103.189000
479 1 2.715500 0.000001 105.904501
480 1 0.000001 2.715500 105.904501
481 1 0.000001 0.000001 108.620000
482 1 2.715500 2.715500 108.620000
483 1 2.715500 0.000001 111.335500
484 1 0.000001 2.715500 111.335500
485 1 0.000001 0.000001 114.051000
486 1 2.715500 2.715500 114.051000
487 1 2.715500 0.000001 116.766501
488 1 0.000001 2.715500 116.766501
489 1 0.000001 0.000001 119.482000
490 1 2.715500 2.715500 119.482000
491 1 2.715500 0.000001 122.197500
492 1 0.000001 2.715500 122.197500
493 1 0.000001 0.000001 124.913000
494 1 2.715500 2.715500 124.913000
495 1 2.715500 0.000001 127.628500
496 1 0.000001 2.715500 127.628500
497 1 0.000001 0.000001 130.344000
498 1 2.715500 2.715500 130.344000
499 1 2.715501 0.000001 133.059501
500 1 0.000001 2.715501 133.059501
501 1 0.000001 0.000001 135.775000
502 1 2.715501 2.715501 135.775000
503 1 2.715500 0.000001 138.490500
504 1 0.000001 2.715500 138.490500
505 1 0.000001 0.000001 141.206000
506 1 2.715500 2.715500 141.206000
507 1 2.715501 0.000001 143.921500
508 1 0.000001 2.715501 143.921500
509 1 0.000001 0.000001 146.637000
510 1 2.715501 2.715501 146.637000
511 1 2.715501 0.000001 149.352501
512 1 0.000001 2.715501 149.352501
513 1 0.000001 0.000001 152.068000
514 1 2.715501 2.715501 152.068000
515 1 2.715500 0.000001 154.783500
516 1 0.000001 2.715500 154.783500
517 1 0.000001 0.000001 157.499000
518 1 2.715500 2.715500 157.499000
519 1 2.715501 0.000001 160.214500
520 1 0.000001 2.715501 160.214500
521 1 0.000001 0.000001 162.930000
522 1 2.715501 2.715501 162.930000
523 1 2.715500 0.000001 165.645500
524 1 0.000001 2.715500 165.645500
525 1 0.000001 0.000001 168.361000
526 1 2.715500 2.715500 168.361000
527 1 2.715501 0.000001 171.076500
528 1 0.000001 2.715501 171.076500
529 1 0.000001 0.000001 173.792000
530 1 2.715501 2.715501 173.792000
531 1 2.715501 0.000001 176.507500
532 1 0.000001 2.715501 176.507500
533 1 0.000001 0.000001 179.223000
534 1 2.715501 2.715501 179.223000
535 1 2.715500 0.000001 181.938500
536 1 0.000001 2.715500 181.938500
537 1 0.000001 0.000001 184.654000
538 1 2.715500 2.715500 184.654000
539 1 2.715501 0.000001 187.369501
540 1 0.000001 2.715501 187.369501
541 1 0.000001 0.000001 190.085000
542 1 2.715501 2.715501 190.085000
543 1 2.715500 0.000001 192.800500
544 1 0.000001 2.715500 192.800500
545 1 0.000001 0.000001 195.516000
546 1 2.715500 2.715500 195.516000
547 1 2.715501 0.000001 198.231500
548 1 0.000001 2.715501 198.231500
549 1 0.000001 0.000001 200.947000
550 1 2.715501 2.715501 200.947000
551 1 2.715501 0.000001 203.662501
552 1 0.000001 2.715501 203.662501
553 1 0.000001 0.000001 206.378000
554 1 2.715501 2.715501 206.378000
555 1 2.715500 0.000001 209.093500
556 1 0.000001 2.715500 209.093500
557 1 0.000001 0.000001 211.809000
558 1 2.715500 2.715500 211.809000
559 1 2.715501 0.000001 214.524500
560 1 0.000001 2.715501 214.524500
561 1 0.000001 0.000001 217.240000
562 1 2.715501 2.715501 217.240000
563 1 2.715500 0.000001 219.955500
564 1 0.000001 2.715500 219.955500
565 1 0.000001 0.000001 222.671000
566 1 2.715500 2.715500 222.671000
567 1 2.715501 0.000001 225.386500
568 1 0.000001 2.715501 225.386500
569 1 0.000001 0.000001 228.102000
570 1 2.715501 2.715501 228.102000
571 1 2.715501 0.000001 230.817500
572 1 0.000001 2.715501 230.817500
573 1 0.000001 0.000001 233.533001
574 1 2.715501 2.715501 233.533001
575 1 2.715500 0.000001 236.248500
576 1 0.000001 2.715500 236.248500
577 1 0.000001 0.000001 238.964000
578 1 2.715500 2.715500 238.964000
579 1 2.715501 0.000001 241.679501
580 1 0.000001 2.715501 241.679501
581 1 0.000001 0.000001 244.395000
582 1 2.715501 2.715501 244.395000
583 1 2.715500 0.000001 247.110500
584 1 0.000001 2.715500 247.110500
585 1 0.000001 0.000001 249.826000
586 1 2.715500 2.715500 249.826000
587 1 2.715501 0.000001 252.541500
588 1 0.000001 2.715501 252.541500
589 1 0.000001 0.000001 255.257000
590 1 2.715501 2.715501 255.257000
591 1 2.715500 0.000001 257.972500
592 1 0.000001 2.715500 257.972500
593 1 0.000001 0.000001 260.688000
594 1 2.715500 2.715500 260.688000
595 1 2.715501 0.000001 263.403500
596 1 0.000001 2.715501 263.403500
597 1 0.000001 0.000001 266.119001
598 1 2.715501 2.715501 266.119001
599 1 2.715500 0.000001 268.834501
600 1 0.000001 2.715500 268.834501
601 1 0.000001 0.000001 271.550000
602 1 2.715500 2.715500 271.550000
603 1 2.715500 0.000001 274.265500
604 1 0.000001 2.715500 274.265500
605 1 0.000001 0.000001 276.981000
606 1 2.715500 2.715500 276.981000
607 1 2.715500 0.000001 279.696500
608 1 0.000001 2.715500 279.696500
609 1 0.000001 0.000001 282.412000
610 1 2.715500 2.715500 282.412000
611 1 2.715501 0.000001 285.127500
612 1 0.000001 2.715501 285.127500
613 1 0.000001 0.000001 287.843000
614 1 2.715501 2.715501 287.843000
615 1 2.715500 0.000001 290.558500
616 1 0.000001 2.715500 290.558500
617 1 0.000001 0.000001 293.274000
618 1 2.715500 2.715500 293.274000
619 1 2.715500 0.000001 295.989500
620 1 0.000001 2.715500 295.989500
621 1 0.000001 0.000001 298.705000
622 1 2.715500 2.715500 298.705000
623 1 2.715501 0.000001 301.420500
624 1 0.000001 2.715501 301.420500
625 1 0.000001 0.000001 304.136000
626 1 2.715501 2.715501 304.136000
627 1 2.715500 0.000001 306.851500
628 1 0.000001 2.715500 306.851500
629 1 0.000001 0.000001 309.567000
630 1 2.715500 2.715500 309.567000
631 1 2.715500 0.000001 312.282500
632 1 0.000001 2.715500 312.282500
633 1 0.000001 0.000001 314.998000
634 1 2.715500 2.715500 314.998000
635 1 2.715501 0.000001 317.713500
636 1 0.000001 2.715501 317.713500
637 1 0.000001 0.000001 320.429001
638 1 2.715501 2.715501 320.429001
639 1 2.715500 0.000001 323.144500
640 1 0.000001 2.715500 323.144500
641 1 0.000001 0.000001 325.860000
642 1 2.715500 2.715500 325.860000
643 1 2.715500 0.000001 328.575501
644 1 0.000001 2.715500 328.575501
645 1 0.000001 0.000001 331.291000
646 1 2.715500 2.715500 331.291000
647 1 2.715500 0.000001 334.006500
648 1 0.000001 2.715500 334.006500
649 1 0.000001 0.000001 336.722000
650 1 2.715500 2.715500 336.722000
651 1 2.715501 0.000001 339.437500
652 1 0.000001 2.715501 339.437500
653 1 0.000001 0.000001 342.153000
654 1 2.715501 2.715501 342.153000
655 1 2.715500 0.000001 344.868501
656 1 0.000001 2.715500 344.868501
657 1 0.000001 0.000001 347.584000
658 1 2.715500 2.715500 347.584000
659 1 2.715500 0.000001 350.299500
660 1 0.000001 2.715500 350.299500
661 1 0.000001 0.000001 353.015000
662 1 2.715500 2.715500 353.015000
663 1 2.715501 0.000001 355.730500
664 1 0.000001 2.715501 355.730500
665 1 0.000001 0.000001 358.446000
666 1 2.715501 2.715501 358.446000
667 1 2.715500 0.000001 361.161501
668 1 0.000001 2.715500 361.161501
669 1 0.000001 0.000001 363.877000
670 1 2.715500 2.715500 363.877000
671 1 2.715500 0.000001 366.592500
672 1 0.000001 2.715500 366.592500
673 1 0.000001 0.000001 369.308000
674 1 2.715500 2.715500 369.308000
675 1 2.715500 0.000001 372.023500
676 1 0.000001 2.715500 372.023500
677 1 0.000001 0.000001 374.739000
678 1 2.715500 2.715500 374.739000
679 1 2.715501 0.000001 377.454500
680 1 0.000001 2.715501 377.454500
681 1 0.000001 0.000001 380.170000
682 1 2.715501 2.715501 380.170000
683 1 2.715500 0.000001 382.885500
684 1 0.000001 2.715500 382.885500
685 1 0.000001 0.000001 385.601000
686 1 2.715500 2.715500 385.601000
687 1 2.715500 0.000001 388.316500
688 1 0.000001 2.715500 388.316500
689 1 0.000001 0.000001 391.032000
690 1 2.715500 2.715500 391.032000
691 1 2.715501 0.000001 393.747500
692 1 0.000001 2.715501 393.747500
693 1 0.000001 0.000001 396.463000
694 1 2.715501 2.715501 396.463000
695 1 2.715500 0.000001 399.178500
696 1 0.000001 2.715500 399.178500
697 1 0.000001 0.000001 401.894000
698 1 2.715500 2.715500 401.894000
699 1 2.715500 0.000001 404.609500
700 1 0.000001 2.715500 404.609500
701 1 0.000001 0.000001 407.325000
702 1 2.715500 2.715500 407.325000
703 1 2.715501 0.000001 410.040500
704 1 0.000001 2.715501 410.040500
705 1 0.000001 0.000001 412.756000
706 1 2.715501 2.715501 412.756000
707 1 2.715500 0.000001 415.471500
708 1 0.000001 2.715500 415.471500
709 1 0.000001 0.000001 418.187000
710 1 2.715500 2.715500 418.187000
711 1 2.715500 0.000001 420.902501
712 1 0.000001 2.715500 420.902501
713 1 0.000001 0.000001 423.618000
714 1 2.715500 2.715500 423.618000
715 1 2.715500 0.000001 426.333500
716 1 0.000001 2.715500 426.333500
717 1 0.000001 0.000001 429.049000
718 1 2.715500 2.715500 429.049000
719 1 2.715501 0.000001 431.764500
720 1 0.000001 2.715501 431.764500
721 1 0.000001 0.000001 434.480000
722 1 2.715501 2.715501 434.480000
723 1 2.715500 0.000001 437.195501
724 1 0.000001 2.715500 437.195501
725 1 0.000001 0.000001 439.911000
726 1 2.715500 2.715500 439.911000
727 1 2.715500 0.000001 442.626500
728 1 0.000001 2.715500 442.626500
729 1 0.000001 0.000001 445.342000
730 1 2.715500 2.715500 445.342000
731 1 2.715501 0.000001 448.057500
732 1 0.000001 2.715501 448.057500
733 1 0.000001 0.000001 450.773000
734 1 2.715501 2.715501 450.773000
735 1 2.715500 0.000001 453.488501
736 1 0.000001 2.715500 453.488501
737 1 0.000001 0.000001 456.204000
738 1 2.715500 2.715500 456.204000
739 1 2.715500 0.000001 458.919500
740 1 0.000001 2.715500 458.919500
741 1 0.000001 0.000001 461.635000
742 1 2.715500 2.715500 461.635000
743 1 2.715501 0.000001 464.350500
744 1 0.000001 2.715501 464.350500
745 1 0.000001 0.000001 467.066001
746 1 2.715501 2.715501 467.066001
747 1 2.715500 0.000001 469.781501
748 1 0.000001 2.715500 469.781501
749 1 0.000001 0.000001 472.497000
750 1 2.715500 2.715500 472.497000
751 1 2.715500 0.000001 475.212500
752 1 0.000001 2.715500 475.212500
753 1 0.000001 0.000001 477.928000
754 1 2.715500 2.715500 477.928000
755 1 2.715500 0.000001 480.643500
756 1 0.000001 2.715500 480.643500
757 1 0.000001 0.000001 483.359000
758 1 2.715500 2.715500 483.359000
759 1 2.715501 0.000001 486.074500
760 1 0.000001 2.715501 486.074500
761 1 0.000001 0.000001 488.790000
762 1 2.715501 2.715501 488.790000
763 1 2.715500 0.000001 491.505500
764 1 0.000001 2.715500 491.505500
765 1 0.000001 0.000001 494.221000
766 1 2.715500 2.715500 494.221000
767 1 2.715500 0.000001 496.936500
768 1 0.000001 2.715500 496.936500
769 1 0.000001 0.000001 499.652000
770 1 2.715500 2.715500 499.652000
771 1 2.715501 0.000001 502.367500
772 1 0.000001 2.715501 502.367500
773 1 0.000001 0.000001 505.083000
774 1 2.715501 2.715501 505.083000
775 1 2.715500 0.000001 507.798500
776 1 0.000001 2.715500 507.798500
777 1 0.000001 0.000001 510.514000
778 1 2.715500 2.715500 510.514000
779 1 2.715501 0.000001 513.229501
780 1 0.000001 2.715501 513.229501
781 1 0.000001 0.000001 515.945001
782 1 2.715501 2.715501 515.945001
783 1 2.715500 0.000001 518.660500
784 1 0.000001 2.715500 518.660500
785 1 0.000001 0.000001 521.376000
786 1 2.715500 2.715500 521.376000
787 1 2.715501 0.000001 524.091500
788 1 0.000001 2.715501 524.091500
789 1 0.000001 0.000001 526.807000
790 1 2.715501 2.715501 526.807000
791 1 2.715501 0.000001 529.522501
792 1 0.000001 2.715501 529.522501
793 1 0.000001 0.000001 532.238001
794 1 2.715501 2.715501 532.238001
795 1 2.715500 0.000001 534.953501
796 1 0.000001 2.715500 534.953501
797 1 0.000001 0.000001 537.669000
798 1 2.715500 2.715500 537.669000
799 1 2.715501 0.000001 540.384500
800 1 0.000001 2.715501 540.384500
